Generation of single soft sphere model.

726 atoms
2172 bonds
1448 angles
2172 dihedrals
0 impropers

1 atom types
2172 bond types
1448 angle types
2172 dihedral types
0 improper types

0.000 60.000 xlo xhi
0.000 60.000 ylo yhi
0.000 60.000 zlo zhi

Masses

1 1.000000 

Bond Coeffs #harmonic

1 0.01000000 0.63644220
2 0.01000000 0.77531542
3 0.01000000 0.71294881
4 0.01000000 0.64269342
5 0.01000000 0.70664695
6 0.01000000 0.75665213
7 0.01000000 0.65301317
8 0.01000000 0.67415208
9 0.01000000 0.63319163
10 0.01000000 0.66169354
11 0.01000000 0.83033082
12 0.01000000 0.75649485
13 0.01000000 0.73394540
14 0.01000000 0.79528092
15 0.01000000 0.66907901
16 0.01000000 0.69625560
17 0.01000000 0.67727246
18 0.01000000 0.72311474
19 0.01000000 0.66260537
20 0.01000000 0.73322309
21 0.01000000 0.73365347
22 0.01000000 0.61043904
23 0.01000000 0.72827480
24 0.01000000 0.63164146
25 0.01000000 0.79912564
26 0.01000000 0.73105591
27 0.01000000 0.73579981
28 0.01000000 0.68889860
29 0.01000000 0.81912067
30 0.01000000 0.64504924
31 0.01000000 0.72310220
32 0.01000000 0.73469437
33 0.01000000 0.63426716
34 0.01000000 0.72777438
35 0.01000000 0.68168725
36 0.01000000 0.73537300
37 0.01000000 0.66717970
38 0.01000000 0.69384590
39 0.01000000 0.69644468
40 0.01000000 0.75196232
41 0.01000000 0.69262508
42 0.01000000 0.72625889
43 0.01000000 0.68733717
44 0.01000000 0.69093452
45 0.01000000 0.74461774
46 0.01000000 0.65037319
47 0.01000000 0.73923581
48 0.01000000 0.77726796
49 0.01000000 0.70149943
50 0.01000000 0.65286420
51 0.01000000 0.73851265
52 0.01000000 0.65151618
53 0.01000000 0.72694206
54 0.01000000 0.65827601
55 0.01000000 0.65558962
56 0.01000000 0.68603471
57 0.01000000 0.75558548
58 0.01000000 0.74675191
59 0.01000000 0.71495051
60 0.01000000 0.66259207
61 0.01000000 0.66886060
62 0.01000000 0.63804275
63 0.01000000 0.62609335
64 0.01000000 0.69903016
65 0.01000000 0.74986754
66 0.01000000 0.71472741
67 0.01000000 0.70689681
68 0.01000000 0.75523064
69 0.01000000 0.67430940
70 0.01000000 0.70892962
71 0.01000000 0.74746598
72 0.01000000 0.64388269
73 0.01000000 0.74951303
74 0.01000000 0.80683548
75 0.01000000 0.65131008
76 0.01000000 0.66199019
77 0.01000000 0.68061584
78 0.01000000 0.63787454
79 0.01000000 0.72294539
80 0.01000000 0.72231847
81 0.01000000 0.69231944
82 0.01000000 0.76386323
83 0.01000000 0.65798555
84 0.01000000 0.71741342
85 0.01000000 0.68574077
86 0.01000000 0.72668651
87 0.01000000 0.75783067
88 0.01000000 0.69955009
89 0.01000000 0.69806438
90 0.01000000 0.72984985
91 0.01000000 0.68908445
92 0.01000000 0.71630482
93 0.01000000 0.68357764
94 0.01000000 0.76217924
95 0.01000000 0.67400666
96 0.01000000 0.73812699
97 0.01000000 0.70402013
98 0.01000000 0.71001393
99 0.01000000 0.72022437
100 0.01000000 0.68696344
101 0.01000000 0.65919134
102 0.01000000 0.62332396
103 0.01000000 0.80234026
104 0.01000000 0.75435551
105 0.01000000 0.68524371
106 0.01000000 0.68947485
107 0.01000000 0.71343169
108 0.01000000 0.65745050
109 0.01000000 0.77522412
110 0.01000000 0.76706842
111 0.01000000 0.64062638
112 0.01000000 0.78434931
113 0.01000000 0.61851400
114 0.01000000 0.70615701
115 0.01000000 0.78521501
116 0.01000000 0.68586737
117 0.01000000 0.75690273
118 0.01000000 0.66723744
119 0.01000000 0.76167111
120 0.01000000 0.74901776
121 0.01000000 0.60273904
122 0.01000000 0.64184279
123 0.01000000 0.69921250
124 0.01000000 0.64199081
125 0.01000000 0.77439663
126 0.01000000 0.66789309
127 0.01000000 0.70472305
128 0.01000000 0.69999571
129 0.01000000 0.74087827
130 0.01000000 0.70661718
131 0.01000000 0.77851364
132 0.01000000 0.68018908
133 0.01000000 0.68097455
134 0.01000000 0.70700263
135 0.01000000 0.76618791
136 0.01000000 0.73598458
137 0.01000000 0.68142668
138 0.01000000 0.71794267
139 0.01000000 0.68292166
140 0.01000000 0.70748319
141 0.01000000 0.76618500
142 0.01000000 0.70915941
143 0.01000000 0.65674985
144 0.01000000 0.67128765
145 0.01000000 0.67057996
146 0.01000000 0.69585638
147 0.01000000 0.70921472
148 0.01000000 0.70681632
149 0.01000000 0.71700016
150 0.01000000 0.76161938
151 0.01000000 0.71294556
152 0.01000000 0.72722874
153 0.01000000 0.68849582
154 0.01000000 0.69807587
155 0.01000000 0.69745392
156 0.01000000 0.65204103
157 0.01000000 0.67688177
158 0.01000000 0.78468613
159 0.01000000 0.70039879
160 0.01000000 0.65397781
161 0.01000000 0.76039936
162 0.01000000 0.64930344
163 0.01000000 0.72547934
164 0.01000000 0.78589458
165 0.01000000 0.71031088
166 0.01000000 0.66747078
167 0.01000000 0.72578443
168 0.01000000 0.69194434
169 0.01000000 0.73674822
170 0.01000000 0.73303922
171 0.01000000 0.74352893
172 0.01000000 0.68522254
173 0.01000000 0.70552644
174 0.01000000 0.69376569
175 0.01000000 0.73279723
176 0.01000000 0.68889711
177 0.01000000 0.73199350
178 0.01000000 0.65535647
179 0.01000000 0.74461485
180 0.01000000 0.65897870
181 0.01000000 0.74444371
182 0.01000000 0.76322571
183 0.01000000 0.71186040
184 0.01000000 0.65823471
185 0.01000000 0.74393831
186 0.01000000 0.64969813
187 0.01000000 0.78857570
188 0.01000000 0.73236877
189 0.01000000 0.80152730
190 0.01000000 0.62380220
191 0.01000000 0.74910621
192 0.01000000 0.67488620
193 0.01000000 0.72225168
194 0.01000000 0.73009897
195 0.01000000 0.74453155
196 0.01000000 0.65808549
197 0.01000000 0.71158078
198 0.01000000 0.68657515
199 0.01000000 0.76900273
200 0.01000000 0.73972836
201 0.01000000 0.72649964
202 0.01000000 0.67552539
203 0.01000000 0.73149400
204 0.01000000 0.66302592
205 0.01000000 0.78597972
206 0.01000000 0.81671781
207 0.01000000 0.68554101
208 0.01000000 0.61166717
209 0.01000000 0.69043434
210 0.01000000 0.70139517
211 0.01000000 0.68569136
212 0.01000000 0.71478663
213 0.01000000 0.72275771
214 0.01000000 0.71155775
215 0.01000000 0.68486537
216 0.01000000 0.71016082
217 0.01000000 0.74525244
218 0.01000000 0.74459733
219 0.01000000 0.72297018
220 0.01000000 0.68118368
221 0.01000000 0.80781578
222 0.01000000 0.66597404
223 0.01000000 0.82117885
224 0.01000000 0.76184089
225 0.01000000 0.64817277
226 0.01000000 0.82940358
227 0.01000000 0.79556543
228 0.01000000 0.62980739
229 0.01000000 0.73633019
230 0.01000000 0.71807824
231 0.01000000 0.67549776
232 0.01000000 0.69184527
233 0.01000000 0.65052062
234 0.01000000 0.74472868
235 0.01000000 0.76043835
236 0.01000000 0.76471341
237 0.01000000 0.73165664
238 0.01000000 0.67875544
239 0.01000000 0.65790775
240 0.01000000 0.71731520
241 0.01000000 0.69265788
242 0.01000000 0.71686435
243 0.01000000 0.73251883
244 0.01000000 0.75392984
245 0.01000000 0.67320910
246 0.01000000 0.69202397
247 0.01000000 0.65587244
248 0.01000000 0.76934568
249 0.01000000 0.69232855
250 0.01000000 0.67199827
251 0.01000000 0.77888615
252 0.01000000 0.62760762
253 0.01000000 0.65558570
254 0.01000000 0.68946859
255 0.01000000 0.72483923
256 0.01000000 0.74460770
257 0.01000000 0.72176398
258 0.01000000 0.73511651
259 0.01000000 0.69631668
260 0.01000000 0.72157305
261 0.01000000 0.68622911
262 0.01000000 0.71342637
263 0.01000000 0.72836471
264 0.01000000 0.72377825
265 0.01000000 0.76788279
266 0.01000000 0.68666730
267 0.01000000 0.70662162
268 0.01000000 0.70109494
269 0.01000000 0.72281753
270 0.01000000 0.73337555
271 0.01000000 0.65940364
272 0.01000000 0.72747944
273 0.01000000 0.72276957
274 0.01000000 0.70446782
275 0.01000000 0.66288161
276 0.01000000 0.72297401
277 0.01000000 0.70963581
278 0.01000000 0.72320994
279 0.01000000 0.71679546
280 0.01000000 0.71136155
281 0.01000000 0.72836310
282 0.01000000 0.72407836
283 0.01000000 0.69745079
284 0.01000000 0.71968203
285 0.01000000 0.67858121
286 0.01000000 0.73631198
287 0.01000000 0.72702588
288 0.01000000 0.73378023
289 0.01000000 0.71571515
290 0.01000000 0.73162328
291 0.01000000 0.77581303
292 0.01000000 0.74116742
293 0.01000000 0.65147205
294 0.01000000 0.70231809
295 0.01000000 0.72732758
296 0.01000000 0.70259968
297 0.01000000 0.73250696
298 0.01000000 0.72297670
299 0.01000000 0.72405272
300 0.01000000 0.68801450
301 0.01000000 0.74940617
302 0.01000000 0.69842836
303 0.01000000 0.70981977
304 0.01000000 0.71149502
305 0.01000000 0.74177069
306 0.01000000 0.66375160
307 0.01000000 0.77591036
308 0.01000000 0.68821002
309 0.01000000 0.69411092
310 0.01000000 0.75832538
311 0.01000000 0.68988505
312 0.01000000 0.61572141
313 0.01000000 0.80389220
314 0.01000000 0.63029526
315 0.01000000 0.68819882
316 0.01000000 0.75390083
317 0.01000000 0.71401800
318 0.01000000 0.60398270
319 0.01000000 0.63310211
320 0.01000000 0.80408451
321 0.01000000 0.68233197
322 0.01000000 0.59424804
323 0.01000000 0.78302749
324 0.01000000 0.73330630
325 0.01000000 0.68437720
326 0.01000000 0.70287771
327 0.01000000 0.78100395
328 0.01000000 0.72238446
329 0.01000000 0.65912204
330 0.01000000 0.69729380
331 0.01000000 0.76411204
332 0.01000000 0.67150374
333 0.01000000 0.66623010
334 0.01000000 0.79620550
335 0.01000000 0.62875382
336 0.01000000 0.59867117
337 0.01000000 0.68909635
338 0.01000000 0.71879604
339 0.01000000 0.79303534
340 0.01000000 0.65111908
341 0.01000000 0.66851301
342 0.01000000 0.72338553
343 0.01000000 0.75740649
344 0.01000000 0.77755938
345 0.01000000 0.66847541
346 0.01000000 0.67643972
347 0.01000000 0.76850705
348 0.01000000 0.74153626
349 0.01000000 0.66990468
350 0.01000000 0.74001101
351 0.01000000 0.74433820
352 0.01000000 0.71187620
353 0.01000000 0.73776752
354 0.01000000 0.72798829
355 0.01000000 0.68037391
356 0.01000000 0.64922585
357 0.01000000 0.74690735
358 0.01000000 0.73132604
359 0.01000000 0.72071570
360 0.01000000 0.65418226
361 0.01000000 0.74133449
362 0.01000000 0.71135124
363 0.01000000 0.77911796
364 0.01000000 0.67025912
365 0.01000000 0.77657501
366 0.01000000 0.71622752
367 0.01000000 0.67095220
368 0.01000000 0.70233078
369 0.01000000 0.70772754
370 0.01000000 0.71130142
371 0.01000000 0.73384533
372 0.01000000 0.70839611
373 0.01000000 0.69004706
374 0.01000000 0.70580242
375 0.01000000 0.75542532
376 0.01000000 0.67684437
377 0.01000000 0.76659577
378 0.01000000 0.69828414
379 0.01000000 0.68512440
380 0.01000000 0.67966888
381 0.01000000 0.70719850
382 0.01000000 0.73022629
383 0.01000000 0.70508065
384 0.01000000 0.66773023
385 0.01000000 0.73503071
386 0.01000000 0.70602080
387 0.01000000 0.73804885
388 0.01000000 0.69253703
389 0.01000000 0.74030630
390 0.01000000 0.69033633
391 0.01000000 0.70185774
392 0.01000000 0.70409759
393 0.01000000 0.70022694
394 0.01000000 0.71240334
395 0.01000000 0.70440344
396 0.01000000 0.69920408
397 0.01000000 0.72409920
398 0.01000000 0.71608905
399 0.01000000 0.69882591
400 0.01000000 0.72534673
401 0.01000000 0.72993106
402 0.01000000 0.70715438
403 0.01000000 0.70397631
404 0.01000000 0.73029657
405 0.01000000 0.66662645
406 0.01000000 0.70540669
407 0.01000000 0.68603264
408 0.01000000 0.70903763
409 0.01000000 0.72672510
410 0.01000000 0.71773559
411 0.01000000 0.70626492
412 0.01000000 0.72008555
413 0.01000000 0.71369340
414 0.01000000 0.74929877
415 0.01000000 0.65342076
416 0.01000000 0.71003448
417 0.01000000 0.77137757
418 0.01000000 0.70563111
419 0.01000000 0.70818076
420 0.01000000 0.74067288
421 0.01000000 0.69509436
422 0.01000000 0.71152923
423 0.01000000 0.77293239
424 0.01000000 0.68992704
425 0.01000000 0.69564111
426 0.01000000 0.72950121
427 0.01000000 0.65333294
428 0.01000000 0.72710076
429 0.01000000 0.77313375
430 0.01000000 0.71065015
431 0.01000000 0.67191712
432 0.01000000 0.72812522
433 0.01000000 0.65341631
434 0.01000000 0.71163251
435 0.01000000 0.76869615
436 0.01000000 0.68990806
437 0.01000000 0.63196662
438 0.01000000 0.77945463
439 0.01000000 0.79878014
440 0.01000000 0.72710944
441 0.01000000 0.65401107
442 0.01000000 0.72021306
443 0.01000000 0.66350072
444 0.01000000 0.70611007
445 0.01000000 0.72242452
446 0.01000000 0.71721362
447 0.01000000 0.71832956
448 0.01000000 0.73036981
449 0.01000000 0.69961212
450 0.01000000 0.72340150
451 0.01000000 0.72983891
452 0.01000000 0.68892066
453 0.01000000 0.72337355
454 0.01000000 0.73762860
455 0.01000000 0.68909872
456 0.01000000 0.71581624
457 0.01000000 0.82543646
458 0.01000000 0.70958371
459 0.01000000 0.84140022
460 0.01000000 0.73526776
461 0.01000000 0.74261849
462 0.01000000 0.59784206
463 0.01000000 0.78484739
464 0.01000000 0.73462896
465 0.01000000 0.69450277
466 0.01000000 0.71725947
467 0.01000000 0.73565353
468 0.01000000 0.69496887
469 0.01000000 0.72467232
470 0.01000000 0.73100503
471 0.01000000 0.67979268
472 0.01000000 0.73592462
473 0.01000000 0.73517511
474 0.01000000 0.71757359
475 0.01000000 0.70072819
476 0.01000000 0.66720323
477 0.01000000 0.72294757
478 0.01000000 0.75144994
479 0.01000000 0.64339024
480 0.01000000 0.79179057
481 0.01000000 0.65551469
482 0.01000000 0.72119210
483 0.01000000 0.72596855
484 0.01000000 0.71815462
485 0.01000000 0.70322120
486 0.01000000 0.70904180
487 0.01000000 0.72772117
488 0.01000000 0.69707023
489 0.01000000 0.73862078
490 0.01000000 0.69944158
491 0.01000000 0.71040064
492 0.01000000 0.70603701
493 0.01000000 0.74582582
494 0.01000000 0.67322600
495 0.01000000 0.76556029
496 0.01000000 0.67170229
497 0.01000000 0.69899447
498 0.01000000 0.65579659
499 0.01000000 0.83578253
500 0.01000000 0.61709126
501 0.01000000 0.67184807
502 0.01000000 0.82313953
503 0.01000000 0.66997994
504 0.01000000 0.69277511
505 0.01000000 0.79681015
506 0.01000000 0.60834061
507 0.01000000 0.68449058
508 0.01000000 0.61559607
509 0.01000000 0.69714811
510 0.01000000 0.66371914
511 0.01000000 0.78079916
512 0.01000000 0.68791981
513 0.01000000 0.60937763
514 0.01000000 0.77772944
515 0.01000000 0.81959889
516 0.01000000 0.67981662
517 0.01000000 0.69626331
518 0.01000000 0.70111002
519 0.01000000 0.60274397
520 0.01000000 0.69111140
521 0.01000000 0.68725204
522 0.01000000 0.74411426
523 0.01000000 0.75002072
524 0.01000000 0.71221056
525 0.01000000 0.74573774
526 0.01000000 0.69672785
527 0.01000000 0.71979003
528 0.01000000 0.75147736
529 0.01000000 0.71346083
530 0.01000000 0.73997785
531 0.01000000 0.72982278
532 0.01000000 0.69978693
533 0.01000000 0.72034585
534 0.01000000 0.71708690
535 0.01000000 0.67445749
536 0.01000000 0.70207400
537 0.01000000 0.79716615
538 0.01000000 0.77545565
539 0.01000000 0.81184871
540 0.01000000 0.76840082
541 0.01000000 0.68622758
542 0.01000000 0.68067931
543 0.01000000 0.73604878
544 0.01000000 0.71097657
545 0.01000000 0.73821691
546 0.01000000 0.69535726
547 0.01000000 0.72074130
548 0.01000000 0.71858647
549 0.01000000 0.75106840
550 0.01000000 0.72520911
551 0.01000000 0.76194780
552 0.01000000 0.66121470
553 0.01000000 0.69687446
554 0.01000000 0.69830702
555 0.01000000 0.70883283
556 0.01000000 0.73308933
557 0.01000000 0.71226438
558 0.01000000 0.74679842
559 0.01000000 0.70146864
560 0.01000000 0.73965721
561 0.01000000 0.73522303
562 0.01000000 0.66046397
563 0.01000000 0.70561411
564 0.01000000 0.69186527
565 0.01000000 0.65083321
566 0.01000000 0.72933127
567 0.01000000 0.62532235
568 0.01000000 0.78293024
569 0.01000000 0.70394889
570 0.01000000 0.76289733
571 0.01000000 0.68131934
572 0.01000000 0.74956035
573 0.01000000 0.75531578
574 0.01000000 0.66067528
575 0.01000000 0.67319170
576 0.01000000 0.69678840
577 0.01000000 0.73188337
578 0.01000000 0.63590245
579 0.01000000 0.62937205
580 0.01000000 0.67850922
581 0.01000000 0.72793621
582 0.01000000 0.72105666
583 0.01000000 0.69932674
584 0.01000000 0.67379380
585 0.01000000 0.73649226
586 0.01000000 0.71099214
587 0.01000000 0.71265562
588 0.01000000 0.70737405
589 0.01000000 0.73013958
590 0.01000000 0.81541507
591 0.01000000 0.61022432
592 0.01000000 0.71060147
593 0.01000000 0.72847092
594 0.01000000 0.70453993
595 0.01000000 0.70721629
596 0.01000000 0.72212971
597 0.01000000 0.70947015
598 0.01000000 0.69220872
599 0.01000000 0.69589419
600 0.01000000 0.73648397
601 0.01000000 0.73881711
602 0.01000000 0.72748794
603 0.01000000 0.67122103
604 0.01000000 0.70674564
605 0.01000000 0.71037013
606 0.01000000 0.72568407
607 0.01000000 0.71808288
608 0.01000000 0.72558380
609 0.01000000 0.70117218
610 0.01000000 0.68404217
611 0.01000000 0.66540399
612 0.01000000 0.76649238
613 0.01000000 0.70905510
614 0.01000000 0.70213532
615 0.01000000 0.73678796
616 0.01000000 0.69717148
617 0.01000000 0.70919772
618 0.01000000 0.72643713
619 0.01000000 0.70681318
620 0.01000000 0.69661047
621 0.01000000 0.72604962
622 0.01000000 0.71169925
623 0.01000000 0.72690258
624 0.01000000 0.71786548
625 0.01000000 0.69238957
626 0.01000000 0.78053531
627 0.01000000 0.68371981
628 0.01000000 0.60591254
629 0.01000000 0.72002823
630 0.01000000 0.59536746
631 0.01000000 0.68686676
632 0.01000000 0.66907518
633 0.01000000 0.80591400
634 0.01000000 0.67011117
635 0.01000000 0.67753076
636 0.01000000 0.75294774
637 0.01000000 0.70318475
638 0.01000000 0.66800159
639 0.01000000 0.63689386
640 0.01000000 0.65921467
641 0.01000000 0.75863001
642 0.01000000 0.68541666
643 0.01000000 0.74231138
644 0.01000000 0.72425588
645 0.01000000 0.66988997
646 0.01000000 0.64941656
647 0.01000000 0.74806683
648 0.01000000 0.77255565
649 0.01000000 0.66831236
650 0.01000000 0.70906742
651 0.01000000 0.75213750
652 0.01000000 0.79224658
653 0.01000000 0.71603493
654 0.01000000 0.65505344
655 0.01000000 0.68989894
656 0.01000000 0.62872362
657 0.01000000 0.59110472
658 0.01000000 0.60411846
659 0.01000000 0.76494566
660 0.01000000 0.79451915
661 0.01000000 0.76974147
662 0.01000000 0.64176478
663 0.01000000 0.70595212
664 0.01000000 0.71847650
665 0.01000000 0.77149675
666 0.01000000 0.65876589
667 0.01000000 0.73677398
668 0.01000000 0.72624771
669 0.01000000 0.68647656
670 0.01000000 0.71812197
671 0.01000000 0.73611689
672 0.01000000 0.69203944
673 0.01000000 0.68405045
674 0.01000000 0.73941226
675 0.01000000 0.68641670
676 0.01000000 0.74379580
677 0.01000000 0.71973476
678 0.01000000 0.71977510
679 0.01000000 0.81450167
680 0.01000000 0.69622097
681 0.01000000 0.71337380
682 0.01000000 0.65375074
683 0.01000000 0.79797008
684 0.01000000 0.71721572
685 0.01000000 0.69886974
686 0.01000000 0.76417801
687 0.01000000 0.66539125
688 0.01000000 0.70738095
689 0.01000000 0.72588907
690 0.01000000 0.67162879
691 0.01000000 0.70035538
692 0.01000000 0.71827856
693 0.01000000 0.72454072
694 0.01000000 0.70912876
695 0.01000000 0.60343221
696 0.01000000 0.76779033
697 0.01000000 0.79515716
698 0.01000000 0.69315685
699 0.01000000 0.70134381
700 0.01000000 0.66475841
701 0.01000000 0.61963131
702 0.01000000 0.75082562
703 0.01000000 0.80989187
704 0.01000000 0.78139664
705 0.01000000 0.69039076
706 0.01000000 0.79438458
707 0.01000000 0.65813127
708 0.01000000 0.72088542
709 0.01000000 0.73908304
710 0.01000000 0.64569148
711 0.01000000 0.73226673
712 0.01000000 0.76373105
713 0.01000000 0.65822518
714 0.01000000 0.71859499
715 0.01000000 0.80362080
716 0.01000000 0.58969554
717 0.01000000 0.76326377
718 0.01000000 0.78480113
719 0.01000000 0.62158368
720 0.01000000 0.72145565
721 0.01000000 0.74919493
722 0.01000000 0.78418090
723 0.01000000 0.82380778
724 0.01000000 0.66033733
725 0.01000000 0.67620175
726 0.01000000 0.75582783
727 0.01000000 0.67508703
728 0.01000000 0.65162828
729 0.01000000 0.73893290
730 0.01000000 0.73729734
731 0.01000000 0.62859271
732 0.01000000 0.70796210
733 0.01000000 0.75575539
734 0.01000000 0.67089251
735 0.01000000 0.78853349
736 0.01000000 0.77269446
737 0.01000000 0.63144076
738 0.01000000 0.69375472
739 0.01000000 0.67713593
740 0.01000000 0.73176774
741 0.01000000 0.73189674
742 0.01000000 0.74144165
743 0.01000000 0.73372845
744 0.01000000 0.68311339
745 0.01000000 0.67112635
746 0.01000000 0.74453077
747 0.01000000 0.72724158
748 0.01000000 0.69968495
749 0.01000000 0.68106150
750 0.01000000 0.77921975
751 0.01000000 0.70013680
752 0.01000000 0.67231729
753 0.01000000 0.74612362
754 0.01000000 0.71825105
755 0.01000000 0.70039004
756 0.01000000 0.68838662
757 0.01000000 0.77663792
758 0.01000000 0.70147867
759 0.01000000 0.69884685
760 0.01000000 0.72483683
761 0.01000000 0.72247742
762 0.01000000 0.73027878
763 0.01000000 0.74230233
764 0.01000000 0.70390712
765 0.01000000 0.74416815
766 0.01000000 0.68311208
767 0.01000000 0.64031501
768 0.01000000 0.78789245
769 0.01000000 0.65502668
770 0.01000000 0.83634815
771 0.01000000 0.72655372
772 0.01000000 0.62744630
773 0.01000000 0.63882395
774 0.01000000 0.64894544
775 0.01000000 0.83004925
776 0.01000000 0.69290885
777 0.01000000 0.66608586
778 0.01000000 0.68576050
779 0.01000000 0.79530119
780 0.01000000 0.65146269
781 0.01000000 0.77373642
782 0.01000000 0.64978565
783 0.01000000 0.68590236
784 0.01000000 0.68449608
785 0.01000000 0.74748591
786 0.01000000 0.69494437
787 0.01000000 0.74696218
788 0.01000000 0.68786428
789 0.01000000 0.69976158
790 0.01000000 0.71592753
791 0.01000000 0.75172565
792 0.01000000 0.67971530
793 0.01000000 0.72234424
794 0.01000000 0.71642672
795 0.01000000 0.72236047
796 0.01000000 0.70318271
797 0.01000000 0.68980985
798 0.01000000 0.70482006
799 0.01000000 0.74427145
800 0.01000000 0.73052366
801 0.01000000 0.70870690
802 0.01000000 0.69535099
803 0.01000000 0.69729661
804 0.01000000 0.75033311
805 0.01000000 0.75915681
806 0.01000000 0.75147155
807 0.01000000 0.73120603
808 0.01000000 0.68616691
809 0.01000000 0.68712464
810 0.01000000 0.69154197
811 0.01000000 0.72463426
812 0.01000000 0.71153496
813 0.01000000 0.69360479
814 0.01000000 0.71145578
815 0.01000000 0.71589246
816 0.01000000 0.72277695
817 0.01000000 0.72183358
818 0.01000000 0.66061094
819 0.01000000 0.84249777
820 0.01000000 0.64446629
821 0.01000000 0.73522612
822 0.01000000 0.79658613
823 0.01000000 0.72179675
824 0.01000000 0.71741433
825 0.01000000 0.71810009
826 0.01000000 0.73903373
827 0.01000000 0.72114149
828 0.01000000 0.70393939
829 0.01000000 0.72920242
830 0.01000000 0.70074440
831 0.01000000 0.76332653
832 0.01000000 0.76908835
833 0.01000000 0.70509192
834 0.01000000 0.66697048
835 0.01000000 0.72671394
836 0.01000000 0.70237242
837 0.01000000 0.77081109
838 0.01000000 0.68308553
839 0.01000000 0.66433255
840 0.01000000 0.75379066
841 0.01000000 0.71206766
842 0.01000000 0.75137015
843 0.01000000 0.67488675
844 0.01000000 0.68827735
845 0.01000000 0.69595660
846 0.01000000 0.72588987
847 0.01000000 0.76687509
848 0.01000000 0.69217946
849 0.01000000 0.74166341
850 0.01000000 0.74909021
851 0.01000000 0.67176310
852 0.01000000 0.74770966
853 0.01000000 0.66504461
854 0.01000000 0.75995413
855 0.01000000 0.77340349
856 0.01000000 0.69175335
857 0.01000000 0.70520428
858 0.01000000 0.62942152
859 0.01000000 0.77698778
860 0.01000000 0.70150738
861 0.01000000 0.64164409
862 0.01000000 0.65074972
863 0.01000000 0.77991234
864 0.01000000 0.74517296
865 0.01000000 0.69870970
866 0.01000000 0.73508619
867 0.01000000 0.61825367
868 0.01000000 0.83493907
869 0.01000000 0.74020584
870 0.01000000 0.69174056
871 0.01000000 0.67906122
872 0.01000000 0.71508666
873 0.01000000 0.71747212
874 0.01000000 0.67717425
875 0.01000000 0.63495798
876 0.01000000 0.63756375
877 0.01000000 0.68359565
878 0.01000000 0.81536949
879 0.01000000 0.78429531
880 0.01000000 0.72517032
881 0.01000000 0.56218940
882 0.01000000 0.71079079
883 0.01000000 0.62140881
884 0.01000000 0.78395233
885 0.01000000 0.61580440
886 0.01000000 0.73424388
887 0.01000000 0.65862196
888 0.01000000 0.72392881
889 0.01000000 0.78462580
890 0.01000000 0.75925595
891 0.01000000 0.61789393
892 0.01000000 0.64241655
893 0.01000000 0.71174569
894 0.01000000 0.70709073
895 0.01000000 0.69779577
896 0.01000000 0.74888689
897 0.01000000 0.77900722
898 0.01000000 0.67804857
899 0.01000000 0.76542935
900 0.01000000 0.63037087
901 0.01000000 0.67644254
902 0.01000000 0.81386021
903 0.01000000 0.79860574
904 0.01000000 0.69337933
905 0.01000000 0.66953179
906 0.01000000 0.67185170
907 0.01000000 0.72336714
908 0.01000000 0.70123676
909 0.01000000 0.70243289
910 0.01000000 0.76340702
911 0.01000000 0.66330233
912 0.01000000 0.74825135
913 0.01000000 0.71495693
914 0.01000000 0.67874204
915 0.01000000 0.73314029
916 0.01000000 0.73066168
917 0.01000000 0.74687186
918 0.01000000 0.68607572
919 0.01000000 0.67903228
920 0.01000000 0.75408607
921 0.01000000 0.71881643
922 0.01000000 0.69753909
923 0.01000000 0.72065556
924 0.01000000 0.74261558
925 0.01000000 0.72218709
926 0.01000000 0.68507118
927 0.01000000 0.74409866
928 0.01000000 0.70749145
929 0.01000000 0.75232582
930 0.01000000 0.69891014
931 0.01000000 0.68339287
932 0.01000000 0.75980524
933 0.01000000 0.69830935
934 0.01000000 0.67917771
935 0.01000000 0.70423280
936 0.01000000 0.73172421
937 0.01000000 0.72795963
938 0.01000000 0.72957551
939 0.01000000 0.66547189
940 0.01000000 0.75840014
941 0.01000000 0.67981286
942 0.01000000 0.80651055
943 0.01000000 0.76352268
944 0.01000000 0.73200490
945 0.01000000 0.60878945
946 0.01000000 0.69494990
947 0.01000000 0.63490357
948 0.01000000 0.67077657
949 0.01000000 0.79375827
950 0.01000000 0.76818373
951 0.01000000 0.63564533
952 0.01000000 0.77044346
953 0.01000000 0.65389131
954 0.01000000 0.66934570
955 0.01000000 0.70560092
956 0.01000000 0.73696892
957 0.01000000 0.66352422
958 0.01000000 0.63715217
959 0.01000000 0.64906817
960 0.01000000 0.65291032
961 0.01000000 0.70306985
962 0.01000000 0.75557177
963 0.01000000 0.67417596
964 0.01000000 0.68777201
965 0.01000000 0.75581421
966 0.01000000 0.73199418
967 0.01000000 0.72772699
968 0.01000000 0.71056050
969 0.01000000 0.65347617
970 0.01000000 0.79154947
971 0.01000000 0.66552726
972 0.01000000 0.70287711
973 0.01000000 0.68133887
974 0.01000000 0.73872245
975 0.01000000 0.67516319
976 0.01000000 0.77694267
977 0.01000000 0.65318493
978 0.01000000 0.69315200
979 0.01000000 0.72644433
980 0.01000000 0.70976233
981 0.01000000 0.79885170
982 0.01000000 0.65167577
983 0.01000000 0.69087264
984 0.01000000 0.68218722
985 0.01000000 0.72501343
986 0.01000000 0.74190371
987 0.01000000 0.67930410
988 0.01000000 0.62571891
989 0.01000000 0.65694910
990 0.01000000 0.61997964
991 0.01000000 0.70920003
992 0.01000000 0.65430075
993 0.01000000 0.76703510
994 0.01000000 0.70896602
995 0.01000000 0.71405777
996 0.01000000 0.67768628
997 0.01000000 0.74794063
998 0.01000000 0.74336222
999 0.01000000 0.76834426
1000 0.01000000 0.73059703
1001 0.01000000 0.66858734
1002 0.01000000 0.71007869
1003 0.01000000 0.74202693
1004 0.01000000 0.69794741
1005 0.01000000 0.70631419
1006 0.01000000 0.71198316
1007 0.01000000 0.72018941
1008 0.01000000 0.71027629
1009 0.01000000 0.71361681
1010 0.01000000 0.73330688
1011 0.01000000 0.70832447
1012 0.01000000 0.71389152
1013 0.01000000 0.74017305
1014 0.01000000 0.70914682
1015 0.01000000 0.69804781
1016 0.01000000 0.74665639
1017 0.01000000 0.69233244
1018 0.01000000 0.67884252
1019 0.01000000 0.74836985
1020 0.01000000 0.71359705
1021 0.01000000 0.69697470
1022 0.01000000 0.73107644
1023 0.01000000 0.68683658
1024 0.01000000 0.72064849
1025 0.01000000 0.72396995
1026 0.01000000 0.68689705
1027 0.01000000 0.70172914
1028 0.01000000 0.76306127
1029 0.01000000 0.69640398
1030 0.01000000 0.69581885
1031 0.01000000 0.75471951
1032 0.01000000 0.69285096
1033 0.01000000 0.68287495
1034 0.01000000 0.74865183
1035 0.01000000 0.75520277
1036 0.01000000 0.66015482
1037 0.01000000 0.69571831
1038 0.01000000 0.75731393
1039 0.01000000 0.69763557
1040 0.01000000 0.63347369
1041 0.01000000 0.78301196
1042 0.01000000 0.81637870
1043 0.01000000 0.64117185
1044 0.01000000 0.63560101
1045 0.01000000 0.66406625
1046 0.01000000 0.63523395
1047 0.01000000 0.67814722
1048 0.01000000 0.67997833
1049 0.01000000 0.75080522
1050 0.01000000 0.82816636
1051 0.01000000 0.72988651
1052 0.01000000 0.74255264
1053 0.01000000 0.65354515
1054 0.01000000 0.64842333
1055 0.01000000 0.70693092
1056 0.01000000 0.74114891
1057 0.01000000 0.64645789
1058 0.01000000 0.64485987
1059 0.01000000 0.77013478
1060 0.01000000 0.67352871
1061 0.01000000 0.68370313
1062 0.01000000 0.70805443
1063 0.01000000 0.71726660
1064 0.01000000 0.72944295
1065 0.01000000 0.65855270
1066 0.01000000 0.72740236
1067 0.01000000 0.65071185
1068 0.01000000 0.71552325
1069 0.01000000 0.76165654
1070 0.01000000 0.63826659
1071 0.01000000 0.72506494
1072 0.01000000 0.69177389
1073 0.01000000 0.69126547
1074 0.01000000 0.80101338
1075 0.01000000 0.65279875
1076 0.01000000 0.65425497
1077 0.01000000 0.67510339
1078 0.01000000 0.71061792
1079 0.01000000 0.73623181
1080 0.01000000 0.67475597
1081 0.01000000 0.71085311
1082 0.01000000 0.74740939
1083 0.01000000 0.71340370
1084 0.01000000 0.75037111
1085 0.01000000 0.61796732
1086 0.01000000 0.70757490
1087 0.01000000 0.75545046
1088 0.01000000 0.70885373
1089 0.01000000 0.69884487
1090 0.01000000 0.75787273
1091 0.01000000 0.71579024
1092 0.01000000 0.73769501
1093 0.01000000 0.68879691
1094 0.01000000 0.72910464
1095 0.01000000 0.71652419
1096 0.01000000 0.68074997
1097 0.01000000 0.76077993
1098 0.01000000 0.70576131
1099 0.01000000 0.69463505
1100 0.01000000 0.74549063
1101 0.01000000 0.72220122
1102 0.01000000 0.71406395
1103 0.01000000 0.68197171
1104 0.01000000 0.68339609
1105 0.01000000 0.74534093
1106 0.01000000 0.71887125
1107 0.01000000 0.72269655
1108 0.01000000 0.69888370
1109 0.01000000 0.73338781
1110 0.01000000 0.69810549
1111 0.01000000 0.67290688
1112 0.01000000 0.77008713
1113 0.01000000 0.71851345
1114 0.01000000 0.75417298
1115 0.01000000 0.66416285
1116 0.01000000 0.67101601
1117 0.01000000 0.74279523
1118 0.01000000 0.73063319
1119 0.01000000 0.66888408
1120 0.01000000 0.70943741
1121 0.01000000 0.75003521
1122 0.01000000 0.70835183
1123 0.01000000 0.72290414
1124 0.01000000 0.73563478
1125 0.01000000 0.83000036
1126 0.01000000 0.67510672
1127 0.01000000 0.61858681
1128 0.01000000 0.71890945
1129 0.01000000 0.66615326
1130 0.01000000 0.83346298
1131 0.01000000 0.70144038
1132 0.01000000 0.67958875
1133 0.01000000 0.71080758
1134 0.01000000 0.72532989
1135 0.01000000 0.65809322
1136 0.01000000 0.66067444
1137 0.01000000 0.71823641
1138 0.01000000 0.74930896
1139 0.01000000 0.68287008
1140 0.01000000 0.65817679
1141 0.01000000 0.80440763