Lattice model. 

2244 atoms
42000 bonds
0 angles
0 dihedrals
1500 impropers

1 atom types
42000 bond types
0 angle types
0 dihedral types
1500 improper types

0.000 40.000 xlo xhi
0.000 100.000 ylo yhi
0.000 80.000 zlo zhi

Masses

1 4.456328 

Bond Coeffs #harmonic

1 1.666667e-01 0.00000000
2 1.666667e-01 0.00000000
3 1.666667e-01 0.00000000
4 1.666667e-01 0.00000000
5 1.666667e-01 0.00000000
6 1.666667e-01 0.00000000
7 1.666667e-01 0.00000000
8 1.666667e-01 0.00000000
9 1.666667e-01 0.00000000
10 1.666667e-01 0.00000000
11 1.666667e-01 0.00000000
12 1.666667e-01 0.00000000
13 1.666667e-01 0.00000000
14 1.666667e-01 0.00000000
15 1.666667e-01 0.00000000
16 1.666667e-01 0.00000000
17 1.666667e-01 0.00000000
18 1.666667e-01 0.00000000
19 1.666667e-01 0.00000000
20 1.666667e-01 0.00000000
21 1.666667e-01 0.00000000
22 1.666667e-01 0.00000000
23 1.666667e-01 0.00000000
24 1.666667e-01 0.00000000
25 1.666667e-01 0.00000000
26 1.666667e-01 0.00000000
27 1.666667e-01 0.00000000
28 1.666667e-01 0.00000000
29 1.666667e-01 0.00000000
30 1.666667e-01 0.00000000
31 1.666667e-01 0.00000000
32 1.666667e-01 0.00000000
33 1.666667e-01 0.00000000
34 1.666667e-01 0.00000000
35 1.666667e-01 0.00000000
36 1.666667e-01 0.00000000
37 1.666667e-01 0.00000000
38 1.666667e-01 0.00000000
39 1.666667e-01 0.00000000
40 1.666667e-01 0.00000000
41 1.666667e-01 0.00000000
42 1.666667e-01 0.00000000
43 1.666667e-01 0.00000000
44 1.666667e-01 0.00000000
45 1.666667e-01 0.00000000
46 1.666667e-01 0.00000000
47 1.666667e-01 0.00000000
48 1.666667e-01 0.00000000
49 1.666667e-01 0.00000000
50 1.666667e-01 0.00000000
51 1.666667e-01 0.00000000
52 1.666667e-01 0.00000000
53 1.666667e-01 0.00000000
54 1.666667e-01 0.00000000
55 1.666667e-01 0.00000000
56 1.666667e-01 0.00000000
57 1.666667e-01 0.00000000
58 1.666667e-01 0.00000000
59 1.666667e-01 0.00000000
60 1.666667e-01 0.00000000
61 1.666667e-01 0.00000000
62 1.666667e-01 0.00000000
63 1.666667e-01 0.00000000
64 1.666667e-01 0.00000000
65 1.666667e-01 0.00000000
66 1.666667e-01 0.00000000
67 1.666667e-01 0.00000000
68 1.666667e-01 0.00000000
69 1.666667e-01 0.00000000
70 1.666667e-01 0.00000000
71 1.666667e-01 0.00000000
72 1.666667e-01 0.00000000
73 1.666667e-01 0.00000000
74 1.666667e-01 0.00000000
75 1.666667e-01 0.00000000
76 1.666667e-01 0.00000000
77 1.666667e-01 0.00000000
78 1.666667e-01 0.00000000
79 1.666667e-01 0.00000000
80 1.666667e-01 0.00000000
81 1.666667e-01 0.00000000
82 1.666667e-01 0.00000000
83 1.666667e-01 0.00000000
84 1.666667e-01 0.00000000
85 1.666667e-01 0.00000000
86 1.666667e-01 0.00000000
87 1.666667e-01 0.00000000
88 1.666667e-01 0.00000000
89 1.666667e-01 0.00000000
90 1.666667e-01 0.00000000
91 1.666667e-01 0.00000000
92 1.666667e-01 0.00000000
93 1.666667e-01 0.00000000
94 1.666667e-01 0.00000000
95 1.666667e-01 0.00000000
96 1.666667e-01 0.00000000
97 1.666667e-01 0.00000000
98 1.666667e-01 0.00000000
99 1.666667e-01 0.00000000
100 1.666667e-01 0.00000000
101 1.666667e-01 0.00000000
102 1.666667e-01 0.00000000
103 1.666667e-01 0.00000000
104 1.666667e-01 0.00000000
105 1.666667e-01 0.00000000
106 1.666667e-01 0.00000000
107 1.666667e-01 0.00000000
108 1.666667e-01 0.00000000
109 1.666667e-01 0.00000000
110 1.666667e-01 0.00000000
111 1.666667e-01 0.00000000
112 1.666667e-01 0.00000000
113 1.666667e-01 0.00000000
114 1.666667e-01 0.00000000
115 1.666667e-01 0.00000000
116 1.666667e-01 0.00000000
117 1.666667e-01 0.00000000
118 1.666667e-01 0.00000000
119 1.666667e-01 0.00000000
120 1.666667e-01 0.00000000
121 1.666667e-01 0.00000000
122 1.666667e-01 0.00000000
123 1.666667e-01 0.00000000
124 1.666667e-01 0.00000000
125 1.666667e-01 0.00000000
126 1.666667e-01 0.00000000
127 1.666667e-01 0.00000000
128 1.666667e-01 0.00000000
129 1.666667e-01 0.00000000
130 1.666667e-01 0.00000000
131 1.666667e-01 0.00000000
132 1.666667e-01 0.00000000
133 1.666667e-01 0.00000000
134 1.666667e-01 0.00000000
135 1.666667e-01 0.00000000
136 1.666667e-01 0.00000000
137 1.666667e-01 0.00000000
138 1.666667e-01 0.00000000
139 1.666667e-01 0.00000000
140 1.666667e-01 0.00000000
141 1.666667e-01 0.00000000
142 1.666667e-01 0.00000000
143 1.666667e-01 0.00000000
144 1.666667e-01 0.00000000
145 1.666667e-01 0.00000000
146 1.666667e-01 0.00000000
147 1.666667e-01 0.00000000
148 1.666667e-01 0.00000000
149 1.666667e-01 0.00000000
150 1.666667e-01 0.00000000
151 1.666667e-01 0.00000000
152 1.666667e-01 0.00000000
153 1.666667e-01 0.00000000
154 1.666667e-01 0.00000000
155 1.666667e-01 0.00000000
156 1.666667e-01 0.00000000
157 1.666667e-01 0.00000000
158 1.666667e-01 0.00000000
159 1.666667e-01 0.00000000
160 1.666667e-01 0.00000000
161 1.666667e-01 0.00000000
162 1.666667e-01 0.00000000
163 1.666667e-01 0.00000000
164 1.666667e-01 0.00000000
165 1.666667e-01 0.00000000
166 1.666667e-01 0.00000000
167 1.666667e-01 0.00000000
168 1.666667e-01 0.00000000
169 1.666667e-01 0.00000000
170 1.666667e-01 0.00000000
171 1.666667e-01 0.00000000
172 1.666667e-01 0.00000000
173 1.666667e-01 0.00000000
174 1.666667e-01 0.00000000
175 1.666667e-01 0.00000000
176 1.666667e-01 0.00000000
177 1.666667e-01 0.00000000
178 1.666667e-01 0.00000000
179 1.666667e-01 0.00000000
180 1.666667e-01 0.00000000
181 1.666667e-01 0.00000000
182 1.666667e-01 0.00000000
183 1.666667e-01 0.00000000
184 1.666667e-01 0.00000000
185 1.666667e-01 0.00000000
186 1.666667e-01 0.00000000
187 1.666667e-01 0.00000000
188 1.666667e-01 0.00000000
189 1.666667e-01 0.00000000
190 1.666667e-01 0.00000000
191 1.666667e-01 0.00000000
192 1.666667e-01 0.00000000
193 1.666667e-01 0.00000000
194 1.666667e-01 0.00000000
195 1.666667e-01 0.00000000
196 1.666667e-01 0.00000000
197 1.666667e-01 0.00000000
198 1.666667e-01 0.00000000
199 1.666667e-01 0.00000000
200 1.666667e-01 0.00000000
201 1.666667e-01 0.00000000
202 1.666667e-01 0.00000000
203 1.666667e-01 0.00000000
204 1.666667e-01 0.00000000
205 1.666667e-01 0.00000000
206 1.666667e-01 0.00000000
207 1.666667e-01 0.00000000
208 1.666667e-01 0.00000000
209 1.666667e-01 0.00000000
210 1.666667e-01 0.00000000
211 1.666667e-01 0.00000000
212 1.666667e-01 0.00000000
213 1.666667e-01 0.00000000
214 1.666667e-01 0.00000000
215 1.666667e-01 0.00000000
216 1.666667e-01 0.00000000
217 1.666667e-01 0.00000000
218 1.666667e-01 0.00000000
219 1.666667e-01 0.00000000
220 1.666667e-01 0.00000000
221 1.666667e-01 0.00000000
222 1.666667e-01 0.00000000
223 1.666667e-01 0.00000000
224 1.666667e-01 0.00000000
225 1.666667e-01 0.00000000
226 1.666667e-01 0.00000000
227 1.666667e-01 0.00000000
228 1.666667e-01 0.00000000
229 1.666667e-01 0.00000000
230 1.666667e-01 0.00000000
231 1.666667e-01 0.00000000
232 1.666667e-01 0.00000000
233 1.666667e-01 0.00000000
234 1.666667e-01 0.00000000
235 1.666667e-01 0.00000000
236 1.666667e-01 0.00000000
237 1.666667e-01 0.00000000
238 1.666667e-01 0.00000000
239 1.666667e-01 0.00000000
240 1.666667e-01 0.00000000
241 1.666667e-01 0.00000000
242 1.666667e-01 0.00000000
243 1.666667e-01 0.00000000
244 1.666667e-01 0.00000000
245 1.666667e-01 0.00000000
246 1.666667e-01 0.00000000
247 1.666667e-01 0.00000000
248 1.666667e-01 0.00000000
249 1.666667e-01 0.00000000
250 1.666667e-01 0.00000000
251 1.666667e-01 0.00000000
252 1.666667e-01 0.00000000
253 1.666667e-01 0.00000000
254 1.666667e-01 0.00000000
255 1.666667e-01 0.00000000
256 1.666667e-01 0.00000000
257 1.666667e-01 0.00000000
258 1.666667e-01 0.00000000
259 1.666667e-01 0.00000000
260 1.666667e-01 0.00000000
261 1.666667e-01 0.00000000
262 1.666667e-01 0.00000000
263 1.666667e-01 0.00000000
264 1.666667e-01 0.00000000
265 1.666667e-01 0.00000000
266 1.666667e-01 0.00000000
267 1.666667e-01 0.00000000
268 1.666667e-01 0.00000000
269 1.666667e-01 0.00000000
270 1.666667e-01 0.00000000
271 1.666667e-01 0.00000000
272 1.666667e-01 0.00000000
273 1.666667e-01 0.00000000
274 1.666667e-01 0.00000000
275 1.666667e-01 0.00000000
276 1.666667e-01 0.00000000
277 1.666667e-01 0.00000000
278 1.666667e-01 0.00000000
279 1.666667e-01 0.00000000
280 1.666667e-01 0.00000000
281 1.666667e-01 0.00000000
282 1.666667e-01 0.00000000
283 1.666667e-01 0.00000000
284 1.666667e-01 0.00000000
285 1.666667e-01 0.00000000
286 1.666667e-01 0.00000000
287 1.666667e-01 0.00000000
288 1.666667e-01 0.00000000
289 1.666667e-01 0.00000000
290 1.666667e-01 0.00000000
291 1.666667e-01 0.00000000
292 1.666667e-01 0.00000000
293 1.666667e-01 0.00000000
294 1.666667e-01 0.00000000
295 1.666667e-01 0.00000000
296 1.666667e-01 0.00000000
297 1.666667e-01 0.00000000
298 1.666667e-01 0.00000000
299 1.666667e-01 0.00000000
300 1.666667e-01 0.00000000
301 1.666667e-01 0.00000000
302 1.666667e-01 0.00000000
303 1.666667e-01 0.00000000
304 1.666667e-01 0.00000000
305 1.666667e-01 0.00000000
306 1.666667e-01 0.00000000
307 1.666667e-01 0.00000000
308 1.666667e-01 0.00000000
309 1.666667e-01 0.00000000
310 1.666667e-01 0.00000000
311 1.666667e-01 0.00000000
312 1.666667e-01 0.00000000
313 1.666667e-01 0.00000000
314 1.666667e-01 0.00000000
315 1.666667e-01 0.00000000
316 1.666667e-01 0.00000000
317 1.666667e-01 0.00000000
318 1.666667e-01 0.00000000
319 1.666667e-01 0.00000000
320 1.666667e-01 0.00000000
321 1.666667e-01 0.00000000
322 1.666667e-01 0.00000000
323 1.666667e-01 0.00000000
324 1.666667e-01 0.00000000
325 1.666667e-01 0.00000000
326 1.666667e-01 0.00000000
327 1.666667e-01 0.00000000
328 1.666667e-01 0.00000000
329 1.666667e-01 0.00000000
330 1.666667e-01 0.00000000
331 1.666667e-01 0.00000000
332 1.666667e-01 0.00000000
333 1.666667e-01 0.00000000
334 1.666667e-01 0.00000000
335 1.666667e-01 0.00000000
336 1.666667e-01 0.00000000
337 1.666667e-01 0.00000000
338 1.666667e-01 0.00000000
339 1.666667e-01 0.00000000
340 1.666667e-01 0.00000000
341 1.666667e-01 0.00000000
342 1.666667e-01 0.00000000
343 1.666667e-01 0.00000000
344 1.666667e-01 0.00000000
345 1.666667e-01 0.00000000
346 1.666667e-01 0.00000000
347 1.666667e-01 0.00000000
348 1.666667e-01 0.00000000
349 1.666667e-01 0.00000000
350 1.666667e-01 0.00000000
351 1.666667e-01 0.00000000
352 1.666667e-01 0.00000000
353 1.666667e-01 0.00000000
354 1.666667e-01 0.00000000
355 1.666667e-01 0.00000000
356 1.666667e-01 0.00000000
357 1.666667e-01 0.00000000
358 1.666667e-01 0.00000000
359 1.666667e-01 0.00000000
360 1.666667e-01 0.00000000
361 1.666667e-01 0.00000000
362 1.666667e-01 0.00000000
363 1.666667e-01 0.00000000
364 1.666667e-01 0.00000000
365 1.666667e-01 0.00000000
366 1.666667e-01 0.00000000
367 1.666667e-01 0.00000000
368 1.666667e-01 0.00000000
369 1.666667e-01 0.00000000
370 1.666667e-01 0.00000000
371 1.666667e-01 0.00000000
372 1.666667e-01 0.00000000
373 1.666667e-01 0.00000000
374 1.666667e-01 0.00000000
375 1.666667e-01 0.00000000
376 1.666667e-01 0.00000000
377 1.666667e-01 0.00000000
378 1.666667e-01 0.00000000
379 1.666667e-01 0.00000000
380 1.666667e-01 0.00000000
381 1.666667e-01 0.00000000
382 1.666667e-01 0.00000000
383 1.666667e-01 0.00000000
384 1.666667e-01 0.00000000
385 1.666667e-01 0.00000000
386 1.666667e-01 0.00000000
387 1.666667e-01 0.00000000
388 1.666667e-01 0.00000000
389 1.666667e-01 0.00000000
390 1.666667e-01 0.00000000
391 1.666667e-01 0.00000000
392 1.666667e-01 0.00000000
393 1.666667e-01 0.00000000
394 1.666667e-01 0.00000000
395 1.666667e-01 0.00000000
396 1.666667e-01 0.00000000
397 1.666667e-01 0.00000000
398 1.666667e-01 0.00000000
399 1.666667e-01 0.00000000
400 1.666667e-01 0.00000000
401 1.666667e-01 0.00000000
402 1.666667e-01 0.00000000
403 1.666667e-01 0.00000000
404 1.666667e-01 0.00000000
405 1.666667e-01 0.00000000
406 1.666667e-01 0.00000000
407 1.666667e-01 0.00000000
408 1.666667e-01 0.00000000
409 1.666667e-01 0.00000000
410 1.666667e-01 0.00000000
411 1.666667e-01 0.00000000
412 1.666667e-01 0.00000000
413 1.666667e-01 0.00000000
414 1.666667e-01 0.00000000
415 1.666667e-01 0.00000000
416 1.666667e-01 0.00000000
417 1.666667e-01 0.00000000
418 1.666667e-01 0.00000000
419 1.666667e-01 0.00000000
420 1.666667e-01 0.00000000
421 1.666667e-01 0.00000000
422 1.666667e-01 0.00000000
423 1.666667e-01 0.00000000
424 1.666667e-01 0.00000000
425 1.666667e-01 0.00000000
426 1.666667e-01 0.00000000
427 1.666667e-01 0.00000000
428 1.666667e-01 0.00000000
429 1.666667e-01 0.00000000
430 1.666667e-01 0.00000000
431 1.666667e-01 0.00000000
432 1.666667e-01 0.00000000
433 1.666667e-01 0.00000000
434 1.666667e-01 0.00000000
435 1.666667e-01 0.00000000
436 1.666667e-01 0.00000000
437 1.666667e-01 0.00000000
438 1.666667e-01 0.00000000
439 1.666667e-01 0.00000000
440 1.666667e-01 0.00000000
441 1.666667e-01 0.00000000
442 1.666667e-01 0.00000000
443 1.666667e-01 0.00000000
444 1.666667e-01 0.00000000
445 1.666667e-01 0.00000000
446 1.666667e-01 0.00000000
447 1.666667e-01 0.00000000
448 1.666667e-01 0.00000000
449 1.666667e-01 0.00000000
450 1.666667e-01 0.00000000
451 1.666667e-01 0.00000000
452 1.666667e-01 0.00000000
453 1.666667e-01 0.00000000
454 1.666667e-01 0.00000000
455 1.666667e-01 0.00000000
456 1.666667e-01 0.00000000
457 1.666667e-01 0.00000000
458 1.666667e-01 0.00000000
459 1.666667e-01 0.00000000
460 1.666667e-01 0.00000000
461 1.666667e-01 0.00000000
462 1.666667e-01 0.00000000
463 1.666667e-01 0.00000000
464 1.666667e-01 0.00000000
465 1.666667e-01 0.00000000
466 1.666667e-01 0.00000000
467 1.666667e-01 0.00000000
468 1.666667e-01 0.00000000
469 1.666667e-01 0.00000000
470 1.666667e-01 0.00000000
471 1.666667e-01 0.00000000
472 1.666667e-01 0.00000000
473 1.666667e-01 0.00000000
474 1.666667e-01 0.00000000
475 1.666667e-01 0.00000000
476 1.666667e-01 0.00000000
477 1.666667e-01 0.00000000
478 1.666667e-01 0.00000000
479 1.666667e-01 0.00000000
480 1.666667e-01 0.00000000
481 1.666667e-01 0.00000000
482 1.666667e-01 0.00000000
483 1.666667e-01 0.00000000
484 1.666667e-01 0.00000000
485 1.666667e-01 0.00000000
486 1.666667e-01 0.00000000
487 1.666667e-01 0.00000000
488 1.666667e-01 0.00000000
489 1.666667e-01 0.00000000
490 1.666667e-01 0.00000000
491 1.666667e-01 0.00000000
492 1.666667e-01 0.00000000
493 1.666667e-01 0.00000000
494 1.666667e-01 0.00000000
495 1.666667e-01 0.00000000
496 1.666667e-01 0.00000000
497 1.666667e-01 0.00000000
498 1.666667e-01 0.00000000
499 1.666667e-01 0.00000000
500 1.666667e-01 0.00000000
501 1.666667e-01 0.00000000
502 1.666667e-01 0.00000000
503 1.666667e-01 0.00000000
504 1.666667e-01 0.00000000
505 1.666667e-01 0.00000000
506 1.666667e-01 0.00000000
507 1.666667e-01 0.00000000
508 1.666667e-01 0.00000000
509 1.666667e-01 0.00000000
510 1.666667e-01 0.00000000
511 1.666667e-01 0.00000000
512 1.666667e-01 0.00000000
513 1.666667e-01 0.00000000
514 1.666667e-01 0.00000000
515 1.666667e-01 0.00000000
516 1.666667e-01 0.00000000
517 1.666667e-01 0.00000000
518 1.666667e-01 0.00000000
519 1.666667e-01 0.00000000
520 1.666667e-01 0.00000000
521 1.666667e-01 0.00000000
522 1.666667e-01 0.00000000
523 1.666667e-01 0.00000000
524 1.666667e-01 0.00000000
525 1.666667e-01 0.00000000
526 1.666667e-01 0.00000000
527 1.666667e-01 0.00000000
528 1.666667e-01 0.00000000
529 1.666667e-01 0.00000000
530 1.666667e-01 0.00000000
531 1.666667e-01 0.00000000
532 1.666667e-01 0.00000000
533 1.666667e-01 0.00000000
534 1.666667e-01 0.00000000
535 1.666667e-01 0.00000000
536 1.666667e-01 0.00000000
537 1.666667e-01 0.00000000
538 1.666667e-01 0.00000000
539 1.666667e-01 0.00000000
540 1.666667e-01 0.00000000
541 1.666667e-01 0.00000000
542 1.666667e-01 0.00000000
543 1.666667e-01 0.00000000
544 1.666667e-01 0.00000000
545 1.666667e-01 0.00000000
546 1.666667e-01 0.00000000
547 1.666667e-01 0.00000000
548 1.666667e-01 0.00000000
549 1.666667e-01 0.00000000
550 1.666667e-01 0.00000000
551 1.666667e-01 0.00000000
552 1.666667e-01 0.00000000
553 1.666667e-01 0.00000000
554 1.666667e-01 0.00000000
555 1.666667e-01 0.00000000
556 1.666667e-01 0.00000000
557 1.666667e-01 0.00000000
558 1.666667e-01 0.00000000
559 1.666667e-01 0.00000000
560 1.666667e-01 0.00000000
561 1.666667e-01 0.00000000
562 1.666667e-01 0.00000000
563 1.666667e-01 0.00000000
564 1.666667e-01 0.00000000
565 1.666667e-01 0.00000000
566 1.666667e-01 0.00000000
567 1.666667e-01 0.00000000
568 1.666667e-01 0.00000000
569 1.666667e-01 0.00000000
570 1.666667e-01 0.00000000
571 1.666667e-01 0.00000000
572 1.666667e-01 0.00000000
573 1.666667e-01 0.00000000
574 1.666667e-01 0.00000000
575 1.666667e-01 0.00000000
576 1.666667e-01 0.00000000
577 1.666667e-01 0.00000000
578 1.666667e-01 0.00000000
579 1.666667e-01 0.00000000
580 1.666667e-01 0.00000000
581 1.666667e-01 0.00000000
582 1.666667e-01 0.00000000
583 1.666667e-01 0.00000000
584 1.666667e-01 0.00000000
585 1.666667e-01 0.00000000
586 1.666667e-01 0.00000000
587 1.666667e-01 0.00000000
588 1.666667e-01 0.00000000
589 1.666667e-01 0.00000000
590 1.666667e-01 0.00000000
591 1.666667e-01 0.00000000
592 1.666667e-01 0.00000000
593 1.666667e-01 0.00000000
594 1.666667e-01 0.00000000
595 1.666667e-01 0.00000000
596 1.666667e-01 0.00000000
597 1.666667e-01 0.00000000
598 1.666667e-01 0.00000000
599 1.666667e-01 0.00000000
600 1.666667e-01 0.00000000
601 1.666667e-01 0.00000000
602 1.666667e-01 0.00000000
603 1.666667e-01 0.00000000
604 1.666667e-01 0.00000000
605 1.666667e-01 0.00000000
606 1.666667e-01 0.00000000
607 1.666667e-01 0.00000000
608 1.666667e-01 0.00000000
609 1.666667e-01 0.00000000
610 1.666667e-01 0.00000000
611 1.666667e-01 0.00000000
612 1.666667e-01 0.00000000
613 1.666667e-01 0.00000000
614 1.666667e-01 0.00000000
615 1.666667e-01 0.00000000
616 1.666667e-01 0.00000000
617 1.666667e-01 0.00000000
618 1.666667e-01 0.00000000
619 1.666667e-01 0.00000000
620 1.666667e-01 0.00000000
621 1.666667e-01 0.00000000
622 1.666667e-01 0.00000000
623 1.666667e-01 0.00000000
624 1.666667e-01 0.00000000
625 1.666667e-01 0.00000000
626 1.666667e-01 0.00000000
627 1.666667e-01 0.00000000
628 1.666667e-01 0.00000000
629 1.666667e-01 0.00000000
630 1.666667e-01 0.00000000
631 1.666667e-01 0.00000000
632 1.666667e-01 0.00000000
633 1.666667e-01 0.00000000
634 1.666667e-01 0.00000000
635 1.666667e-01 0.00000000
636 1.666667e-01 0.00000000
637 1.666667e-01 0.00000000
638 1.666667e-01 0.00000000
639 1.666667e-01 0.00000000
640 1.666667e-01 0.00000000
641 1.666667e-01 0.00000000
642 1.666667e-01 0.00000000
643 1.666667e-01 0.00000000
644 1.666667e-01 0.00000000
645 1.666667e-01 0.00000000
646 1.666667e-01 0.00000000
647 1.666667e-01 0.00000000
648 1.666667e-01 0.00000000
649 1.666667e-01 0.00000000
650 1.666667e-01 0.00000000
651 1.666667e-01 0.00000000
652 1.666667e-01 0.00000000
653 1.666667e-01 0.00000000
654 1.666667e-01 0.00000000
655 1.666667e-01 0.00000000
656 1.666667e-01 0.00000000
657 1.666667e-01 0.00000000
658 1.666667e-01 0.00000000
659 1.666667e-01 0.00000000
660 1.666667e-01 0.00000000
661 1.666667e-01 0.00000000
662 1.666667e-01 0.00000000
663 1.666667e-01 0.00000000
664 1.666667e-01 0.00000000
665 1.666667e-01 0.00000000
666 1.666667e-01 0.00000000
667 1.666667e-01 0.00000000
668 1.666667e-01 0.00000000
669 1.666667e-01 0.00000000
670 1.666667e-01 0.00000000
671 1.666667e-01 0.00000000
672 1.666667e-01 0.00000000
673 1.666667e-01 0.00000000
674 1.666667e-01 0.00000000
675 1.666667e-01 0.00000000
676 1.666667e-01 0.00000000
677 1.666667e-01 0.00000000
678 1.666667e-01 0.00000000
679 1.666667e-01 0.00000000
680 1.666667e-01 0.00000000
681 1.666667e-01 0.00000000
682 1.666667e-01 0.00000000
683 1.666667e-01 0.00000000
684 1.666667e-01 0.00000000
685 1.666667e-01 0.00000000
686 1.666667e-01 0.00000000
687 1.666667e-01 0.00000000
688 1.666667e-01 0.00000000
689 1.666667e-01 0.00000000
690 1.666667e-01 0.00000000
691 1.666667e-01 0.00000000
692 1.666667e-01 0.00000000
693 1.666667e-01 0.00000000
694 1.666667e-01 0.00000000
695 1.666667e-01 0.00000000
696 1.666667e-01 0.00000000
697 1.666667e-01 0.00000000
698 1.666667e-01 0.00000000
699 1.666667e-01 0.00000000
700 1.666667e-01 0.00000000
701 1.666667e-01 0.00000000
702 1.666667e-01 0.00000000
703 1.666667e-01 0.00000000
704 1.666667e-01 0.00000000
705 1.666667e-01 0.00000000
706 1.666667e-01 0.00000000
707 1.666667e-01 0.00000000
708 1.666667e-01 0.00000000
709 1.666667e-01 0.00000000
710 1.666667e-01 0.00000000
711 1.666667e-01 0.00000000
712 1.666667e-01 0.00000000
713 1.666667e-01 0.00000000
714 1.666667e-01 0.00000000
715 1.666667e-01 0.00000000
716 1.666667e-01 0.00000000
717 1.666667e-01 0.00000000
718 1.666667e-01 0.00000000
719 1.666667e-01 0.00000000
720 1.666667e-01 0.00000000
721 1.666667e-01 0.00000000
722 1.666667e-01 0.00000000
723 1.666667e-01 0.00000000
724 1.666667e-01 0.00000000
725 1.666667e-01 0.00000000
726 1.666667e-01 0.00000000
727 1.666667e-01 0.00000000
728 1.666667e-01 0.00000000
729 1.666667e-01 0.00000000
730 1.666667e-01 0.00000000
731 1.666667e-01 0.00000000
732 1.666667e-01 0.00000000
733 1.666667e-01 0.00000000
734 1.666667e-01 0.00000000
735 1.666667e-01 0.00000000
736 1.666667e-01 0.00000000
737 1.666667e-01 0.00000000
738 1.666667e-01 0.00000000
739 1.666667e-01 0.00000000
740 1.666667e-01 0.00000000
741 1.666667e-01 0.00000000
742 1.666667e-01 0.00000000
743 1.666667e-01 0.00000000
744 1.666667e-01 0.00000000
745 1.666667e-01 0.00000000
746 1.666667e-01 0.00000000
747 1.666667e-01 0.00000000
748 1.666667e-01 0.00000000
749 1.666667e-01 0.00000000
750 1.666667e-01 0.00000000
751 1.666667e-01 0.00000000
752 1.666667e-01 0.00000000
753 1.666667e-01 0.00000000
754 1.666667e-01 0.00000000
755 1.666667e-01 0.00000000
756 1.666667e-01 0.00000000
757 1.666667e-01 0.00000000
758 1.666667e-01 0.00000000
759 1.666667e-01 0.00000000
760 1.666667e-01 0.00000000
761 1.666667e-01 0.00000000
762 1.666667e-01 0.00000000
763 1.666667e-01 0.00000000
764 1.666667e-01 0.00000000
765 1.666667e-01 0.00000000
766 1.666667e-01 0.00000000
767 1.666667e-01 0.00000000
768 1.666667e-01 0.00000000
769 1.666667e-01 0.00000000
770 1.666667e-01 0.00000000
771 1.666667e-01 0.00000000
772 1.666667e-01 0.00000000
773 1.666667e-01 0.00000000
774 1.666667e-01 0.00000000
775 1.666667e-01 0.00000000
776 1.666667e-01 0.00000000
777 1.666667e-01 0.00000000
778 1.666667e-01 0.00000000
779 1.666667e-01 0.00000000
780 1.666667e-01 0.00000000
781 1.666667e-01 0.00000000
782 1.666667e-01 0.00000000
783 1.666667e-01 0.00000000
784 1.666667e-01 0.00000000
785 1.666667e-01 0.00000000
786 1.666667e-01 0.00000000
787 1.666667e-01 0.00000000
788 1.666667e-01 0.00000000
789 1.666667e-01 0.00000000
790 1.666667e-01 0.00000000
791 1.666667e-01 0.00000000
792 1.666667e-01 0.00000000
793 1.666667e-01 0.00000000
794 1.666667e-01 0.00000000
795 1.666667e-01 0.00000000
796 1.666667e-01 0.00000000
797 1.666667e-01 0.00000000
798 1.666667e-01 0.00000000
799 1.666667e-01 0.00000000
800 1.666667e-01 0.00000000
801 1.666667e-01 0.00000000
802 1.666667e-01 0.00000000
803 1.666667e-01 0.00000000
804 1.666667e-01 0.00000000
805 1.666667e-01 0.00000000
806 1.666667e-01 0.00000000
807 1.666667e-01 0.00000000
808 1.666667e-01 0.00000000
809 1.666667e-01 0.00000000
810 1.666667e-01 0.00000000
811 1.666667e-01 0.00000000
812 1.666667e-01 0.00000000
813 1.666667e-01 0.00000000
814 1.666667e-01 0.00000000
815 1.666667e-01 0.00000000
816 1.666667e-01 0.00000000
817 1.666667e-01 0.00000000
818 1.666667e-01 0.00000000
819 1.666667e-01 0.00000000
820 1.666667e-01 0.00000000
821 1.666667e-01 0.00000000
822 1.666667e-01 0.00000000
823 1.666667e-01 0.00000000
824 1.666667e-01 0.00000000
825 1.666667e-01 0.00000000
826 1.666667e-01 0.00000000
827 1.666667e-01 0.00000000
828 1.666667e-01 0.00000000
829 1.666667e-01 0.00000000
830 1.666667e-01 0.00000000
831 1.666667e-01 0.00000000
832 1.666667e-01 0.00000000
833 1.666667e-01 0.00000000
834 1.666667e-01 0.00000000
835 1.666667e-01 0.00000000
836 1.666667e-01 0.00000000
837 1.666667e-01 0.00000000
838 1.666667e-01 0.00000000
839 1.666667e-01 0.00000000
840 1.666667e-01 0.00000000
841 1.666667e-01 0.00000000
842 1.666667e-01 0.00000000
843 1.666667e-01 0.00000000
844 1.666667e-01 0.00000000
845 1.666667e-01 0.00000000
846 1.666667e-01 0.00000000
847 1.666667e-01 0.00000000
848 1.666667e-01 0.00000000
849 1.666667e-01 0.00000000
850 1.666667e-01 0.00000000
851 1.666667e-01 0.00000000
852 1.666667e-01 0.00000000
853 1.666667e-01 0.00000000
854 1.666667e-01 0.00000000
855 1.666667e-01 0.00000000
856 1.666667e-01 0.00000000
857 1.666667e-01 0.00000000
858 1.666667e-01 0.00000000
859 1.666667e-01 0.00000000
860 1.666667e-01 0.00000000
861 1.666667e-01 0.00000000
862 1.666667e-01 0.00000000
863 1.666667e-01 0.00000000
864 1.666667e-01 0.00000000
865 1.666667e-01 0.00000000
866 1.666667e-01 0.00000000
867 1.666667e-01 0.00000000
868 1.666667e-01 0.00000000
869 1.666667e-01 0.00000000
870 1.666667e-01 0.00000000
871 1.666667e-01 0.00000000
872 1.666667e-01 0.00000000
873 1.666667e-01 0.00000000
874 1.666667e-01 0.00000000
875 1.666667e-01 0.00000000
876 1.666667e-01 0.00000000
877 1.666667e-01 0.00000000
878 1.666667e-01 0.00000000
879 1.666667e-01 0.00000000
880 1.666667e-01 0.00000000
881 1.666667e-01 0.00000000
882 1.666667e-01 0.00000000
883 1.666667e-01 0.00000000
884 1.666667e-01 0.00000000
885 1.666667e-01 0.00000000
886 1.666667e-01 0.00000000
887 1.666667e-01 0.00000000
888 1.666667e-01 0.00000000
889 1.666667e-01 0.00000000
890 1.666667e-01 0.00000000
891 1.666667e-01 0.00000000
892 1.666667e-01 0.00000000
893 1.666667e-01 0.00000000
894 1.666667e-01 0.00000000
895 1.666667e-01 0.00000000
896 1.666667e-01 0.00000000
897 1.666667e-01 0.00000000
898 1.666667e-01 0.00000000
899 1.666667e-01 0.00000000
900 1.666667e-01 0.00000000
901 1.666667e-01 0.00000000
902 1.666667e-01 0.00000000
903 1.666667e-01 0.00000000
904 1.666667e-01 0.00000000
905 1.666667e-01 0.00000000
906 1.666667e-01 0.00000000
907 1.666667e-01 0.00000000
908 1.666667e-01 0.00000000
909 1.666667e-01 0.00000000
910 1.666667e-01 0.00000000
911 1.666667e-01 0.00000000
912 1.666667e-01 0.00000000
913 1.666667e-01 0.00000000
914 1.666667e-01 0.00000000
915 1.666667e-01 0.00000000
916 1.666667e-01 0.00000000
917 1.666667e-01 0.00000000
918 1.666667e-01 0.00000000
919 1.666667e-01 0.00000000
920 1.666667e-01 0.00000000
921 1.666667e-01 0.00000000
922 1.666667e-01 0.00000000
923 1.666667e-01 0.00000000
924 1.666667e-01 0.00000000
925 1.666667e-01 0.00000000
926 1.666667e-01 0.00000000
927 1.666667e-01 0.00000000
928 1.666667e-01 0.00000000
929 1.666667e-01 0.00000000
930 1.666667e-01 0.00000000
931 1.666667e-01 0.00000000
932 1.666667e-01 0.00000000
933 1.666667e-01 0.00000000
934 1.666667e-01 0.00000000
935 1.666667e-01 0.00000000
936 1.666667e-01 0.00000000
937 1.666667e-01 0.00000000
938 1.666667e-01 0.00000000
939 1.666667e-01 0.00000000
940 1.666667e-01 0.00000000
941 1.666667e-01 0.00000000
942 1.666667e-01 0.00000000
943 1.666667e-01 0.00000000
944 1.666667e-01 0.00000000
945 1.666667e-01 0.00000000
946 1.666667e-01 0.00000000
947 1.666667e-01 0.00000000
948 1.666667e-01 0.00000000
949 1.666667e-01 0.00000000
950 1.666667e-01 0.00000000
951 1.666667e-01 0.00000000
952 1.666667e-01 0.00000000
953 1.666667e-01 0.00000000
954 1.666667e-01 0.00000000
955 1.666667e-01 0.00000000
956 1.666667e-01 0.00000000
957 1.666667e-01 0.00000000
958 1.666667e-01 0.00000000
959 1.666667e-01 0.00000000
960 1.666667e-01 0.00000000
961 1.666667e-01 0.00000000
962 1.666667e-01 0.00000000
963 1.666667e-01 0.00000000
964 1.666667e-01 0.00000000
965 1.666667e-01 0.00000000
966 1.666667e-01 0.00000000
967 1.666667e-01 0.00000000
968 1.666667e-01 0.00000000
969 1.666667e-01 0.00000000
970 1.666667e-01 0.00000000
971 1.666667e-01 0.00000000
972 1.666667e-01 0.00000000
973 1.666667e-01 0.00000000
974 1.666667e-01 0.00000000
975 1.666667e-01 0.00000000
976 1.666667e-01 0.00000000
977 1.666667e-01 0.00000000
978 1.666667e-01 0.00000000
979 1.666667e-01 0.00000000
980 1.666667e-01 0.00000000
981 1.666667e-01 0.00000000
982 1.666667e-01 0.00000000
983 1.666667e-01 0.00000000
984 1.666667e-01 0.00000000
985 1.666667e-01 0.00000000
986 1.666667e-01 0.00000000
987 1.666667e-01 0.00000000
988 1.666667e-01 0.00000000
989 1.666667e-01 0.00000000
990 1.666667e-01 0.00000000
991 1.666667e-01 0.00000000
992 1.666667e-01 0.00000000
993 1.666667e-01 0.00000000
994 1.666667e-01 0.00000000
995 1.666667e-01 0.00000000
996 1.666667e-01 0.00000000
997 1.666667e-01 0.00000000
998 1.666667e-01 0.00000000
999 1.666667e-01 0.00000000
1000 1.666667e-01 0.00000000
1001 1.666667e-01 0.00000000
1002 1.666667e-01 0.00000000
1003 1.666667e-01 0.00000000
1004 1.666667e-01 0.00000000
1005 1.666667e-01 0.00000000
1006 1.666667e-01 0.00000000
1007 1.666667e-01 0.00000000
1008 1.666667e-01 0.00000000
1009 1.666667e-01 0.00000000
1010 1.666667e-01 0.00000000
1011 1.666667e-01 0.00000000
1012 1.666667e-01 0.00000000
1013 1.666667e-01 0.00000000
1014 1.666667e-01 0.00000000
1015 1.666667e-01 0.00000000
1016 1.666667e-01 0.00000000
1017 1.666667e-01 0.00000000
1018 1.666667e-01 0.00000000
1019 1.666667e-01 0.00000000
1020 1.666667e-01 0.00000000
1021 1.666667e-01 0.00000000
1022 1.666667e-01 0.00000000
1023 1.666667e-01 0.00000000
1024 1.666667e-01 0.00000000
1025 1.666667e-01 0.00000000
1026 1.666667e-01 0.00000000
1027 1.666667e-01 0.00000000
1028 1.666667e-01 0.00000000
1029 1.666667e-01 0.00000000
1030 1.666667e-01 0.00000000
1031 1.666667e-01 0.00000000
1032 1.666667e-01 0.00000000
1033 1.666667e-01 0.00000000
1034 1.666667e-01 0.00000000
1035 1.666667e-01 0.00000000
1036 1.666667e-01 0.00000000
1037 1.666667e-01 0.00000000
1038 1.666667e-01 0.00000000
1039 1.666667e-01 0.00000000
1040 1.666667e-01 0.00000000
1041 1.666667e-01 0.00000000
1042 1.666667e-01 0.00000000
1043 1.666667e-01 0.00000000
1044 1.666667e-01 0.00000000
1045 1.666667e-01 0.00000000
1046 1.666667e-01 0.00000000
1047 1.666667e-01 0.00000000
1048 1.666667e-01 0.00000000
1049 1.666667e-01 0.00000000
1050 1.666667e-01 0.00000000
1051 1.666667e-01 0.00000000
1052 1.666667e-01 0.00000000
1053 1.666667e-01 0.00000000
1054 1.666667e-01 0.00000000
1055 1.666667e-01 0.00000000
1056 1.666667e-01 0.00000000
1057 1.666667e-01 0.00000000
1058 1.666667e-01 0.00000000
1059 1.666667e-01 0.00000000
1060 1.666667e-01 0.00000000
1061 1.666667e-01 0.00000000
1062 1.666667e-01 0.00000000
1063 1.666667e-01 0.00000000