Generation of multi rbc models.

11616 atoms
0 bonds
0 angles
0 dihedrals
0 impropers

1 atom types
0 bond types
0 angle types
0 dihedral types
0 improper types

-200.000 1800.000 xlo xhi
0.000 2000.000 ylo yhi
0.000 400.000 zlo zhi

Atoms

1 1 1 170.65753832 124.37746925 151.32994494
2 1 1 164.79577701 122.50110840 152.95009662
3 1 1 168.61457597 117.23964150 153.56357870
4 1 1 177.01608150 127.45106645 150.35448145
5 1 1 175.91866412 120.70115624 151.66275264
6 1 1 182.59594602 123.70157215 151.17679718
7 1 1 188.35337828 121.51852762 152.58512382
8 1 1 189.12844140 128.28780608 151.56813099
9 1 1 170.95344564 131.38947284 150.50578747
10 1 1 164.81991159 129.15873791 151.89014899
11 1 1 177.33776870 134.06009216 150.00536290
12 1 1 183.47826359 130.91530067 150.38438860
13 1 1 189.62413934 135.54800003 151.47106042
14 1 1 171.28410756 138.34404148 150.67358672
15 1 1 165.18931663 136.07211150 151.68580643
16 1 1 177.45847018 140.54243499 150.51838416
17 1 1 183.61443494 137.92700001 150.55074626
18 1 1 188.38855207 142.80525732 152.05896635
19 1 1 166.84327816 143.33305522 152.23983647
20 1 1 173.57759860 145.47397244 151.67104613
21 1 1 181.63591240 145.09089428 151.54784174
22 1 1 163.81186944 112.38188447 156.81390981
23 1 1 159.53792726 108.17075490 160.84687518
24 1 1 166.32603030 106.21104635 159.60212603
25 1 1 170.46154813 110.59865183 156.08420071
26 1 1 173.51854962 105.17950243 158.91534893
27 1 1 178.05768048 110.06745648 155.75507343
28 1 1 180.53372660 104.63976611 159.16113406
29 1 1 184.63249579 110.23680968 156.19829467
30 1 1 187.32782809 105.36002044 159.68773960
31 1 1 192.20479835 111.13538737 157.59473169
32 1 1 193.25814361 105.55071750 161.43443627
33 1 1 198.27720034 108.88720542 161.51414309
34 1 1 154.79810551 121.08854843 157.32167068
35 1 1 150.68285014 117.03627707 161.27681539
36 1 1 156.68620907 114.11271675 158.95350974
37 1 1 160.94063377 118.14203228 155.44599119
38 1 1 174.91699293 114.99333418 153.58134700
39 1 1 181.79640797 116.63128404 153.05080379
40 1 1 188.07585282 115.36464402 154.49864096
41 1 1 194.14496588 118.12608131 155.27519825
42 1 1 198.75060046 114.61737317 158.65822131
43 1 1 200.10306718 121.32990194 156.90558849
44 1 1 204.78752136 117.75597262 160.91957102
45 1 1 153.77318176 128.74844286 156.38151235
46 1 1 149.42374575 124.44677240 159.79236032
47 1 1 159.04675012 125.47942545 154.31470339
48 1 1 194.71681602 125.01735205 153.69978521
49 1 1 200.54280929 128.10979977 155.79102088
50 1 1 205.74394271 124.51790075 159.50331426
51 1 1 154.26684324 136.32533185 155.97191554
52 1 1 149.03955143 132.26559266 159.09847698
53 1 1 159.17996042 132.69991051 153.59140927
54 1 1 195.06488828 132.35147619 153.09211550
55 1 1 200.51140660 134.95547946 155.49323424
56 1 1 206.01449483 131.41237878 158.77939594
57 1 1 155.51422279 143.65199650 156.42925182
58 1 1 149.70335959 139.86880851 159.14109261
59 1 1 160.27277319 140.05839315 153.64539408
60 1 1 194.81092925 140.22296433 153.49254368
61 1 1 200.75752770 141.13903729 156.27806234
62 1 1 206.21570530 138.14795364 159.15179907
63 1 1 156.88007013 150.47363060 157.92407286
64 1 1 150.88762696 147.10072789 160.14938702
65 1 1 162.13370922 147.07659784 154.53425167
66 1 1 169.53611407 150.18562773 153.64264164
67 1 1 177.71923005 150.46046349 153.01451088
68 1 1 185.62947103 149.70583166 153.40316782
69 1 1 192.44301716 147.66390963 154.38794181
70 1 1 198.52319028 146.82680500 156.54397015
71 1 1 205.18737391 145.05113016 159.84764911
72 1 1 152.72524443 154.07255185 162.00932025
73 1 1 163.22953734 153.33408048 156.53305489
74 1 1 158.93409828 157.22799847 160.31145706
75 1 1 169.17841611 156.08616976 156.30129721
76 1 1 175.38100288 155.80618858 155.38551315
77 1 1 182.61895489 155.41731156 155.38949902
78 1 1 189.84398980 154.38484208 156.26842176
79 1 1 202.84079975 151.15575860 160.56274520
80 1 1 196.36193359 153.09741122 157.98596936
81 1 1 165.20709380 160.08254268 159.65344035
82 1 1 172.36911207 161.54254431 159.05522696
83 1 1 179.53323540 160.92723257 158.32289250
84 1 1 186.71597646 160.26872482 158.81659259
85 1 1 193.65694518 159.16541137 160.22557274
86 1 1 162.58364217 102.30821086 163.87367652
87 1 1 159.25783123 98.98471595 168.76659070
88 1 1 166.06255266 97.05147322 167.67886036
89 1 1 169.63380006 100.80154783 162.93457935
90 1 1 173.23646901 96.04942511 167.02207695
91 1 1 176.83151183 100.04356030 162.72568944
92 1 1 180.72912501 95.90537361 167.00430356
93 1 1 184.23185627 100.09406190 163.23039548
94 1 1 188.38103643 96.21215623 168.25243189
95 1 1 190.96353184 100.51177664 164.68098028
96 1 1 196.07353386 98.07489100 169.65954577
97 1 1 197.67144586 102.58726237 165.97651827
98 1 1 152.72182557 110.28873865 163.39356630
99 1 1 149.08080547 106.87968340 168.76898512
100 1 1 155.80119942 104.56370899 165.53335762
101 1 1 204.02992249 111.74839040 163.33840338
102 1 1 202.55103525 105.96388168 166.29451669
103 1 1 207.54384092 107.60693399 169.16034767
104 1 1 145.47626116 120.40667934 164.09923490
105 1 1 142.04359187 116.67909951 169.26165608
106 1 1 146.97166976 113.26459060 166.12920541
107 1 1 210.06894496 120.66688679 163.99366224
108 1 1 209.14959141 113.97222616 166.23265301
109 1 1 213.82973212 117.23383400 169.33226873
110 1 1 144.71844796 128.04652730 162.86704101
111 1 1 140.98993814 124.06970109 167.43706572
112 1 1 210.78103671 127.82049941 162.84673293
113 1 1 214.66565416 124.26212408 167.49157579
114 1 1 144.72652321 135.83179265 162.56363186
115 1 1 140.59690600 131.78100918 166.60753111
116 1 1 211.07526316 134.89066591 162.72839497
117 1 1 215.24421765 131.55655909 166.93535686
118 1 1 145.49690152 143.32446529 163.14079290
119 1 1 140.88192334 139.43903070 166.80847758
120 1 1 210.64229289 141.92604819 163.30189747
121 1 1 215.31323602 138.59286409 167.38203423
122 1 1 146.90782131 150.42752860 164.56466330
123 1 1 141.80805503 146.69713016 167.93436124
124 1 1 209.13971587 148.70502247 164.20718550
125 1 1 214.37926297 145.52882559 168.18112915
126 1 1 143.45963190 153.56610475 169.76995824
127 1 1 155.19771648 160.65951365 164.71853343
128 1 1 148.94582961 157.04669433 166.72011092
129 1 1 200.32680777 157.29533166 162.33381418
130 1 1 206.65490188 154.79988453 165.26427503
131 1 1 212.59928763 152.04727583 169.36669764
132 1 1 151.45911848 163.00922118 169.53492512
133 1 1 161.53120933 163.71831335 163.74616087
134 1 1 158.12306643 166.76557369 168.41457104
135 1 1 168.33084223 165.70161344 163.05797743
136 1 1 176.25869260 165.95335764 162.11416339
137 1 1 183.45164993 165.60227008 162.20790401
138 1 1 190.55083214 164.67216381 163.17031376
139 1 1 197.45670712 163.07041164 164.92738147
140 1 1 203.93696665 160.77779130 167.38025969
141 1 1 164.48507763 169.40138112 167.99666434
142 1 1 172.50902167 169.71971865 166.08629296
143 1 1 179.91021000 170.27236979 166.34165651
144 1 1 187.20656141 169.58921784 166.85598134
145 1 1 194.30896304 168.24014426 168.21778250
146 1 1 163.05376850 93.83124349 173.15078597
147 1 1 159.75797967 91.55537372 179.31572206
148 1 1 166.65660039 89.88642954 177.94132154
149 1 1 169.87583958 92.62581775 172.09803008
150 1 1 173.80724003 89.19273841 176.89720538
151 1 1 177.12317679 92.23050294 171.57111488
152 1 1 181.18464332 89.32271067 176.56091046
153 1 1 184.56706014 92.64343069 171.78017833
154 1 1 188.72555790 90.63708207 176.43725664
155 1 1 192.71701010 93.94935052 173.09400237
156 1 1 192.38416466 89.11109814 181.86164167
157 1 1 196.50127819 92.21257976 178.63084961
158 1 1 152.60502838 101.64277063 170.66603114
159 1 1 150.87725584 98.85137429 175.79993982
160 1 1 156.84097652 96.08162806 174.07436582
161 1 1 203.25445842 101.29334086 171.31214783
162 1 1 200.10635152 96.33541459 174.88145113
163 1 1 206.18062438 98.78638268 177.67794050
164 1 1 143.66931686 109.94933985 171.91777288
165 1 1 140.82869726 107.57315785 178.32412613
166 1 1 146.05223844 103.81941979 175.08161447
167 1 1 212.49566927 110.69332968 172.04983964
168 1 1 209.38711036 104.13199056 174.56572373
169 1 1 214.73235988 107.92375742 177.91648383
170 1 1 137.84032339 120.51404453 172.79760851
171 1 1 134.96346195 117.97886289 179.25569617
172 1 1 138.93116669 113.80653282 175.32983541
173 1 1 217.89744708 120.95242731 172.85664123
174 1 1 217.02584042 114.48551063 175.43057120
175 1 1 220.93586865 118.91698088 179.28581151
176 1 1 137.16463072 127.96221911 171.34001485
177 1 1 134.38608727 124.48892958 176.79623705
178 1 1 218.60419537 128.16221802 171.60176488
179 1 1 221.30154187 124.94754254 176.86568830
180 1 1 137.05724114 135.58573809 171.07232169
181 1 1 133.99775554 131.91975600 175.89286099
182 1 1 219.18966353 135.09221767 172.03041230
183 1 1 222.21705825 131.23260367 177.17718245
184 1 1 137.48143441 142.79993366 171.94671032
185 1 1 133.90365036 138.86978670 176.66357914
186 1 1 218.71614299 142.17362104 172.67640564
187 1 1 222.11954915 138.52723111 177.47598458
188 1 1 138.73846075 149.81645051 173.44849727
189 1 1 134.78388754 145.80715581 177.71884229
190 1 1 217.44419455 148.91691871 173.83267372
191 1 1 221.22480256 145.77591364 178.59003218
192 1 1 136.38328955 152.56033167 179.56297657
193 1 1 145.70252528 159.91392233 172.32475003
194 1 1 140.68500509 156.44027312 175.68404563
195 1 1 209.92013097 157.88165238 170.57771480
196 1 1 212.65818789 160.34807577 176.43946643
197 1 1 215.45000296 155.08723903 175.32485151
198 1 1 143.27152533 162.55968383 178.63386962
199 1 1 154.03558817 168.13250763 173.03649646
200 1 1 148.39786145 165.62888478 175.59979952
201 1 1 201.00884804 166.25545272 170.36472804
202 1 1 204.53018990 168.46972951 176.51287799
203 1 1 207.15747605 163.59673698 173.11795557
204 1 1 152.82332427 171.02099809 178.58180242
205 1 1 165.26038946 173.84927210 173.47079089
206 1 1 159.30390565 171.94421012 174.11915651
207 1 1 170.33206026 173.06435555 170.53778216
208 1 1 176.63491665 174.13854930 171.09123748
209 1 1 183.81047125 173.79850925 171.22022365
210 1 1 191.03788792 172.71416254 172.15415599
211 1 1 194.33527430 175.12648618 178.05990358
212 1 1 197.95607096 170.99195731 173.98706613
213 1 1 163.92182069 176.44828990 178.75749603
214 1 1 171.66499758 176.94769931 176.28058275
215 1 1 179.63728342 177.22487907 176.07697836
216 1 1 187.22962896 176.48580404 176.53179725
217 1 1 190.53199050 178.49452570 182.67597663
218 1 1 153.93690964 94.19426400 180.05498021
219 1 1 150.56511682 94.16348731 185.05928933
220 1 1 156.23025993 90.36837459 186.30424528
221 1 1 163.07122608 88.33893171 183.96833960
222 1 1 170.80090812 86.93245517 182.79423347
223 1 1 178.14133964 86.72744864 181.95732729
224 1 1 185.72360714 87.55934992 181.57565796
225 1 1 191.15848410 86.84334758 187.45188913
226 1 1 198.00395722 89.85170889 185.92008669
227 1 1 202.47115378 93.98670774 181.55256527
228 1 1 204.86779140 93.13495687 187.81798859
229 1 1 147.38725508 98.65521657 180.71028061
230 1 1 142.65791554 102.46560369 182.33113768
231 1 1 145.30205984 97.49850543 187.37623994
232 1 1 211.98959802 102.28305060 180.91845918
233 1 1 208.68843923 97.36859575 184.20506703
234 1 1 213.97445914 101.06974358 187.85651477
235 1 1 136.47739216 111.63939371 182.04200993
236 1 1 132.95002342 116.14976001 186.06322468
237 1 1 138.27539115 106.21936761 185.75347780
238 1 1 219.19102985 112.22441066 181.60042830
239 1 1 216.89495752 106.30055819 184.57418967
240 1 1 220.94279562 111.01729946 188.25722111
241 1 1 131.77418383 122.60830461 183.62934785
242 1 1 222.78112720 117.47061550 185.08286702
243 1 1 131.67854511 128.55128494 181.24771623
244 1 1 223.95199674 125.35786389 182.55933771
245 1 1 131.15185547 134.87189190 182.01068998
246 1 1 224.53633863 133.63323415 182.28553675
247 1 1 131.58968248 141.67485122 182.75553739
248 1 1 224.20451101 141.30693691 183.21880067
249 1 1 132.83255850 148.29417588 183.97753932
250 1 1 222.95504233 148.49317337 184.82879571
251 1 1 138.72130835 158.94589279 182.11823939
252 1 1 134.83262402 154.84203953 186.07049010
253 1 1 219.39816589 152.73295179 180.18648708
254 1 1 220.77584245 155.08265694 186.60545503
255 1 1 137.66295892 161.01038133 188.77368193
256 1 1 147.01336047 168.29749261 181.75944960
257 1 1 141.97199138 164.92740361 185.12632632
258 1 1 210.69591566 164.99179135 179.60674204
259 1 1 213.56258609 165.15430399 185.55623550
260 1 1 216.50503981 159.40046263 182.05038031
261 1 1 145.77883944 170.03008799 188.54848519
262 1 1 157.50523396 174.92082273 180.98608814
263 1 1 151.29634793 173.02875276 185.00311998
264 1 1 201.10691406 172.89049386 180.17377497
265 1 1 203.95567939 173.77444900 186.53269473
266 1 1 207.58095869 169.63887383 182.80601495
267 1 1 155.79926719 176.70866071 188.26915078
268 1 1 161.85552145 178.41623317 185.29567810
269 1 1 168.61501655 179.23530849 182.35547360
270 1 1 175.97533501 179.61119379 181.09396826
271 1 1 183.69888819 179.40787954 181.44136618
272 1 1 193.20421552 179.68563349 189.23592209
273 1 1 197.32121532 176.66613905 184.42507744
274 1 1 167.45490003 85.87578428 188.21451250
275 1 1 165.23048532 85.19781187 195.18785481
276 1 1 171.56586682 84.30651469 192.55744987
277 1 1 175.73825615 84.90927902 187.80929166
278 1 1 177.03612159 83.54471560 195.74252889
279 1 1 183.46771362 85.51599785 186.62637469
280 1 1 181.41012571 84.09475258 192.25379860
281 1 1 187.93310315 84.98788211 192.43092441
282 1 1 150.09922952 92.68967645 191.05971655
283 1 1 154.79707705 89.37071179 193.92059129
284 1 1 160.62592485 87.32730812 190.67391173
285 1 1 195.45265610 87.07545101 193.24464676
286 1 1 200.95231098 89.81137020 191.82856545
287 1 1 206.40157574 92.66232778 195.03091523
288 1 1 140.85062745 101.19738844 189.90106805
289 1 1 144.78176825 96.24596123 194.17991477
290 1 1 210.43375108 96.51072244 191.27992983
291 1 1 215.15315279 100.49342894 195.18530383
292 1 1 134.51532216 110.59381248 189.51030182
293 1 1 136.93541250 105.29510215 193.34734616
294 1 1 218.39414040 105.41066788 191.66582244
295 1 1 221.85742279 110.16812921 195.59350020
296 1 1 131.42101118 115.84190075 193.35962037
297 1 1 223.93223305 115.83478685 192.06763976
298 1 1 129.58376640 129.19559606 187.35588975
299 1 1 128.71686261 126.29548525 193.44295702
300 1 1 130.24544613 121.57577023 189.91447540
301 1 1 225.14170206 122.12217328 188.56992633
302 1 1 225.99928488 120.72864433 196.07547444
303 1 1 226.79233844 126.41914963 192.95351982
304 1 1 129.36995735 136.80292643 187.97192382
305 1 1 128.22858771 133.22660787 193.31387193
306 1 1 225.97833783 129.66148809 187.22193334
307 1 1 227.38050159 132.71645259 193.72444647
308 1 1 130.05806347 143.68604505 189.22886807
309 1 1 128.46204987 139.78587735 194.85426188
310 1 1 226.21250713 136.88318218 188.08851029
311 1 1 227.13918716 139.19338021 194.55768478
312 1 1 131.68872523 150.19657078 190.40201038
313 1 1 131.47863742 151.98904247 196.98082857
314 1 1 223.98473890 150.55706101 191.67427285
315 1 1 225.51399044 143.96286550 189.55898468
316 1 1 134.11222719 156.61120970 192.75647286
317 1 1 221.73995856 156.34430194 193.74302870
318 1 1 136.92714752 161.89750555 195.92777678
319 1 1 141.00470317 166.31123220 192.14442749
320 1 1 214.81126433 166.12845782 192.59831487
321 1 1 218.08519014 160.87316389 189.11800799
322 1 1 145.05705081 170.92361990 195.74947389
323 1 1 150.12399624 174.25177659 192.07002311
324 1 1 205.81211904 174.23022506 193.39199029
325 1 1 209.92634311 170.11747743 189.25912905
326 1 1 154.73491000 177.53341131 195.81876475
327 1 1 160.39108251 179.63971492 192.53944269
328 1 1 172.85377724 181.38843734 187.00578295
329 1 1 166.49832928 180.91465910 189.45846202
330 1 1 180.31244028 181.39539061 186.36060542
331 1 1 187.01577632 181.07650044 188.26668359
332 1 1 195.76291450 179.76662163 195.21873246
333 1 1 189.75965043 181.73056845 195.92767364
334 1 1 200.03745436 177.18431502 190.84170144
335 1 1 171.22351900 182.59537271 194.28030608
336 1 1 177.25229961 182.67151954 191.75837581
337 1 1 183.50147744 182.59080649 193.41126463
338 1 1 164.89678962 85.10217775 202.33029099
339 1 1 170.91632527 83.83527686 199.34614130
340 1 1 177.70600843 83.39461989 201.91858055
341 1 1 184.19503034 83.78253095 198.92868560
342 1 1 190.88962149 85.15466637 197.85406680
343 1 1 149.30075975 92.30589812 198.07490647
344 1 1 154.16175354 89.31964519 201.68454520
345 1 1 159.41521557 86.88642951 198.21897750
346 1 1 196.12867195 86.86595471 201.35241824
347 1 1 201.10340383 89.15668649 198.49008498
348 1 1 206.24262480 92.30006750 202.03211526
349 1 1 140.34754316 100.31783044 197.31465641
350 1 1 144.40757618 96.15493382 201.50119623
351 1 1 211.22511112 96.21307901 198.70063838
352 1 1 215.39293427 100.52737503 202.72227484
353 1 1 133.60798884 110.14006550 196.86683970
354 1 1 136.68023199 104.89300330 200.77307712
355 1 1 219.00721745 105.08070971 199.15679558
356 1 1 221.99118835 110.22405229 203.19016914
357 1 1 131.10172058 115.44852095 200.65930099
358 1 1 224.39579068 115.27997000 199.61710135
359 1 1 127.95311941 129.32414183 198.97054150
360 1 1 129.32457636 121.22371629 197.79059602
361 1 1 226.21652289 121.34680203 203.10099605
362 1 1 227.39165360 127.17089229 199.37260483
363 1 1 127.84704921 135.92942580 200.36190106
364 1 1 227.77794302 133.67492729 200.29833568
365 1 1 128.73288459 142.87089939 201.97979894
366 1 1 227.29917807 140.20230590 200.99387953
367 1 1 129.57450792 146.07988478 196.20072512
368 1 1 130.67260619 149.82370727 203.13061307
369 1 1 224.30698528 151.65204484 199.25922194
370 1 1 226.08819615 145.75509087 196.44709514
371 1 1 133.62713600 156.82096069 200.21718393
372 1 1 221.95261090 156.76075158 201.03401978
373 1 1 136.89330302 161.99108759 202.90654136
374 1 1 140.65671116 166.84569008 199.31802732
375 1 1 215.09077547 166.64284486 199.90797820
376 1 1 218.80657972 161.71484244 196.43625835
377 1 1 144.89483142 170.88464077 203.21417365
378 1 1 149.53748299 174.61514170 199.52184915
379 1 1 206.45487593 174.31263097 200.67397831
380 1 1 210.85601820 170.68266104 196.41660911
381 1 1 154.46163225 177.45333072 203.44406189
382 1 1 159.70029306 179.97488384 200.04748006
383 1 1 165.36355357 181.69300874 196.90553492
384 1 1 189.91314067 181.74163784 203.43414860
385 1 1 195.59201946 180.05143698 201.56238226
386 1 1 201.40224776 177.38657873 198.13792445
387 1 1 171.22039224 182.90766814 201.34271320
388 1 1 177.49041197 183.32371222 198.16948903
389 1 1 183.91859408 182.97956411 200.12237287
390 1 1 166.02619920 85.67487666 209.39029012
391 1 1 171.21824104 84.13539428 205.83931979
392 1 1 177.36516605 84.04642227 208.25872279
393 1 1 183.77898762 84.06180668 205.82315505
394 1 1 189.96958285 85.06029832 204.33091636
395 1 1 149.16207330 92.71788718 205.42437988
396 1 1 154.42284119 90.09825384 209.11338638
397 1 1 159.62227022 87.12331010 205.71609005
398 1 1 194.98997103 87.24749348 208.81085833
399 1 1 200.79276603 89.38417534 206.05902546
400 1 1 205.64015101 92.79911744 208.87551306
401 1 1 140.31708512 100.61067351 204.91675646
402 1 1 144.82600418 96.82590537 208.91404612
403 1 1 210.93342944 96.38755855 205.83318426
404 1 1 214.86944483 101.38636920 210.10748961
405 1 1 133.80971134 109.92610894 204.19482019
406 1 1 136.98470894 105.70327020 208.42514743
407 1 1 218.75565652 105.49558561 206.68290232
408 1 1 221.18952084 110.89898182 210.54382633
409 1 1 132.00916653 114.92789702 208.08633097
410 1 1 224.19497632 116.10469582 206.92431378
411 1 1 128.60380657 124.93189485 203.27748208
412 1 1 129.98309613 119.96202962 206.00281576
413 1 1 225.59901784 122.75256523 210.04125965
414 1 1 227.13333884 127.96392875 205.92649207
415 1 1 128.19444530 130.96679374 205.96529205
416 1 1 227.30576404 134.43960634 206.78204052
417 1 1 128.45011899 137.64292181 206.94455958
418 1 1 226.66976748 140.99346616 207.17335710
419 1 1 129.83132230 144.60451272 208.62879941
420 1 1 131.89570425 150.58550933 209.89221983
421 1 1 223.69684290 151.64789534 207.55506163
422 1 1 225.80670943 146.79160265 203.59819087
423 1 1 133.65874326 155.92273358 206.64551071
424 1 1 221.08410662 157.21461554 207.45522239
425 1 1 137.07130581 160.79344457 209.49224942
426 1 1 140.83285114 166.40374375 206.54952562
427 1 1 214.91725321 165.97274456 207.55419496
428 1 1 218.49115021 162.15738836 203.62920791
429 1 1 145.73107136 170.22438728 210.66438442
430 1 1 149.69459852 174.12165362 207.03810706
431 1 1 205.89494511 173.99606390 207.61991229
432 1 1 211.01535979 170.51202589 203.86825810
433 1 1 154.72713215 176.35820827 210.93313559
434 1 1 159.89727191 179.45382859 207.44140184
435 1 1 165.37931290 181.61994368 204.12373220
436 1 1 189.57910631 180.80598071 210.46120693
437 1 1 195.53819224 179.31756552 208.50486085
438 1 1 201.06051581 177.28271555 205.34876548
439 1 1 171.39816272 182.20143159 208.57738735
440 1 1 177.44145100 183.13577436 204.69544398
441 1 1 183.61772601 182.56117776 206.70436211
442 1 1 173.13397161 85.24477856 212.78778867
443 1 1 181.46696958 85.13395468 212.68227327
444 1 1 188.35696191 85.76990738 211.11280327
445 1 1 149.98043001 93.81847929 212.79912948
446 1 1 160.29722733 88.25435789 212.64985631
447 1 1 166.56889282 87.24397170 215.74170411
448 1 1 172.53137319 87.28848562 218.70924194
449 1 1 178.89071161 86.75049823 218.06892921
450 1 1 186.15588619 87.28795934 217.53204687
451 1 1 193.02975377 88.38670284 215.65257491
452 1 1 199.56843592 90.42403838 213.48752182
453 1 1 205.20134552 94.26728089 214.83095033
454 1 1 141.16949635 101.60133612 212.29621724
455 1 1 146.08205768 98.22927919 216.16208176
456 1 1 210.44367274 97.64893583 212.56661556
457 1 1 213.10579933 102.67176616 217.61804773
458 1 1 134.50544328 111.38493440 212.02123240
459 1 1 138.25079533 107.02650113 215.62362818
460 1 1 217.46765141 106.47615465 214.22026331
461 1 1 222.92471061 116.87848479 213.79621746
462 1 1 131.89836988 119.01777498 213.75635707
463 1 1 223.97076673 123.30307722 216.28672755
464 1 1 129.61571668 125.16414807 210.63382567
465 1 1 131.29920258 126.31193911 217.02592415
466 1 1 224.00978505 129.28561457 218.60545447
467 1 1 226.06535371 130.11572710 212.56827812
468 1 1 129.32685098 132.13737177 212.28054307
469 1 1 131.13874816 133.80554389 218.01072385
470 1 1 225.91827038 137.68506363 212.80363394
471 1 1 224.21501043 135.63884600 218.39903698
472 1 1 129.90081758 139.52633244 213.02076454
473 1 1 131.90464926 140.91471456 218.39401461
474 1 1 224.99140277 145.53570579 211.07877889
475 1 1 223.72233713 142.73445692 217.35861650
476 1 1 132.26702393 147.07980646 215.50074317
477 1 1 222.47723467 149.56622838 215.47223250
478 1 1 134.81120027 154.66149879 214.13634251
479 1 1 220.53958199 155.22818102 213.90173952
480 1 1 138.64465081 160.42738425 215.35132714
481 1 1 141.97309849 165.68189657 213.15383469
482 1 1 213.69378078 164.64142240 215.21482285
483 1 1 217.71272364 161.20687644 211.39169267
484 1 1 147.00487235 168.33068431 218.15969341
485 1 1 150.64747232 172.67909703 214.75315611
486 1 1 205.46746236 172.65420747 213.75370470
487 1 1 210.62322522 169.44397710 210.91245316
488 1 1 160.22565436 177.88549813 214.46101696
489 1 1 166.00899587 180.65021371 211.17439952
490 1 1 172.55594186 180.36885255 216.20633095
491 1 1 166.39700006 178.88669194 217.24903885
492 1 1 177.25006389 182.02905295 211.43761716
493 1 1 179.45979403 179.94431332 218.07887818
494 1 1 183.43411955 181.31143943 212.97936649
495 1 1 187.15981019 179.21493135 217.58151752
496 1 1 193.70774762 178.15700696 215.46951670
497 1 1 200.11524608 176.16483335 212.98697274
498 1 1 155.68258987 91.59363669 216.35352706
499 1 1 157.72328973 93.91331386 223.27702279
500 1 1 161.83960832 90.20780829 219.59461444
501 1 1 168.17370729 89.81125949 222.61358318
502 1 1 175.61936996 89.58019615 224.05828362
503 1 1 182.62838663 89.41623034 223.35756338
504 1 1 189.74112590 90.23468727 222.29958053
505 1 1 196.24842968 91.66862195 220.51516531
506 1 1 201.94986997 94.32981549 219.81355784
507 1 1 142.79274826 103.34958816 219.37470194
508 1 1 148.09617292 100.34197668 222.99548501
509 1 1 151.67616124 95.65207098 219.92082087
510 1 1 199.11719011 96.23204766 225.81341014
511 1 1 208.42740745 98.81065774 219.16175641
512 1 1 205.02260178 99.03332898 224.07493963
513 1 1 135.57796158 113.53267685 218.05380288
514 1 1 139.94953608 109.28406231 222.11979216
515 1 1 144.97460203 105.85336348 225.83162832
516 1 1 209.77780711 104.01814610 224.80414502
517 1 1 219.39150950 112.08684834 217.77546271
518 1 1 215.01493216 107.85611141 221.52099134
519 1 1 134.12971076 119.61620577 220.14457659
520 1 1 138.15804909 115.36385678 224.62291043
521 1 1 216.89307491 114.04793934 224.43805741
522 1 1 220.85069434 118.43402274 220.54574018
523 1 1 134.13741196 125.07145316 222.94865075
524 1 1 221.37088168 125.01986059 223.02694567
525 1 1 133.56327715 131.19795680 223.24208073
526 1 1 221.52979833 132.44625975 224.18777813
527 1 1 134.01423346 137.96089601 223.73495316
528 1 1 221.48030349 139.68312111 223.45633120
529 1 1 134.72001715 145.16710841 222.50244426
530 1 1 220.56730842 146.71851621 222.15100709
531 1 1 138.72622657 157.12150601 220.25033865
532 1 1 135.76711658 151.27920006 220.34024928
533 1 1 140.56806859 154.48035824 225.86656458
534 1 1 216.48230576 159.12066736 218.39430654
535 1 1 218.73313966 153.16978239 220.74274637
536 1 1 214.06653258 156.94409167 225.03798798
537 1 1 143.20772711 163.63379720 219.70044708
538 1 1 143.50329414 160.26923386 224.51235829
539 1 1 148.54507561 165.06863431 225.29239642
540 1 1 208.97134264 168.12828787 217.83442937
541 1 1 211.66244968 162.65331442 222.21910586
542 1 1 206.55663515 166.71116811 223.65152962
543 1 1 156.00781873 174.40833992 218.46095061
544 1 1 152.17290054 170.14728070 222.15362105
545 1 1 158.40985303 171.96097511 225.19035546
546 1 1 203.02451885 171.92703513 219.36697474
547 1 1 200.27466225 170.31511353 225.06164421
548 1 1 197.21993391 174.83775238 220.03633269
549 1 1 162.24471047 175.80439156 221.37552714
550 1 1 169.50152146 177.14754591 222.66909823
551 1 1 175.96887667 177.73672165 222.96058077
552 1 1 183.39966183 177.30967928 223.16473812
553 1 1 190.68261245 176.25255085 222.21519147
554 1 1 164.07067345 93.08602446 226.27139915
555 1 1 171.22300222 92.63730471 228.26278299
556 1 1 178.89422390 92.55466887 228.87550609
557 1 1 186.12784391 92.86399627 228.11573743
558 1 1 193.03262199 94.07837557 226.91491876
559 1 1 154.12667278 98.26906686 226.63180509
560 1 1 157.16365051 101.75810000 232.80790135
561 1 1 160.39448854 97.14624946 229.77260241
562 1 1 167.02261445 96.51021322 232.03847519
563 1 1 174.61736498 95.99359254 233.07319334
564 1 1 182.42164384 96.23386679 233.16906053
565 1 1 189.80941160 97.14866372 232.31265375
566 1 1 203.25444996 101.77961734 229.21962757
567 1 1 196.62311797 99.16263963 231.23368093
568 1 1 142.84183406 111.78856550 228.53152492
569 1 1 148.11512163 108.79211395 231.88205850
570 1 1 150.67769568 103.11230400 229.16546461
571 1 1 199.95454130 104.60670069 234.37395365
572 1 1 212.11287910 110.08076408 227.91679152
573 1 1 206.66483732 106.99306582 231.15244335
574 1 1 137.60744635 121.21227847 227.17749421
575 1 1 141.94992444 117.70451040 231.16295431
576 1 1 147.08293918 114.48542872 234.66208910
577 1 1 208.69313578 113.22726054 233.74968156
578 1 1 217.98479262 120.73889716 226.91197037
579 1 1 213.74124205 116.69756641 230.48169204
580 1 1 137.15678087 127.99868908 228.65303995
581 1 1 141.22438844 124.31750738 232.89235883
582 1 1 218.52983553 128.22106095 228.51275161
583 1 1 214.82067235 123.98166697 232.24872152
584 1 1 136.97269705 134.76153758 228.85750787
585 1 1 140.82892167 131.34326717 233.62300129
586 1 1 218.49469763 136.06248561 228.89480998
587 1 1 215.17103091 131.81092735 233.15748902
588 1 1 137.45262800 141.93515529 228.28597061
589 1 1 140.85344424 138.60756249 233.29890452
590 1 1 217.90409273 143.47431583 228.06471491
591 1 1 214.69567331 139.68669433 233.12220813
592 1 1 138.54336509 148.69440922 226.93031791
593 1 1 141.78341947 145.85485109 232.37313497
594 1 1 216.35428294 150.43074059 226.84137425
595 1 1 213.44277451 147.11780679 232.22941551
596 1 1 146.43811687 158.79189577 229.50845187
597 1 1 143.75170151 152.55474762 231.20103874
598 1 1 149.53937519 155.76516630 234.64559865
599 1 1 208.46804224 160.53139602 228.63139268
600 1 1 211.31151067 154.10459612 230.74280807
601 1 1 205.58360921 156.83266746 234.28986871
602 1 1 154.75235330 167.35969194 228.52283576
603 1 1 151.85238987 162.14816150 231.60411525
604 1 1 158.33101653 164.22267017 234.19112047
605 1 1 203.57874857 165.15428708 228.69380676
606 1 1 201.62679335 161.95739955 233.36622607
607 1 1 197.34759260 167.59420200 230.73926992
608 1 1 165.48283100 173.49086610 227.16742260
609 1 1 161.65664231 169.17157566 230.94113609
610 1 1 172.63776179 174.24273624 228.31827973
611 1 1 168.86513136 170.23527844 232.56549753
612 1 1 179.73680498 174.49859202 228.34689549
613 1 1 176.23909207 170.67387143 233.24252345
614 1 1 187.03911633 173.79168243 227.91608233
615 1 1 183.51279639 170.48696032 232.99220605
616 1 1 194.05188448 172.47179590 226.55670016
617 1 1 190.69461733 169.44639456 232.10529076
618 1 1 163.23249734 101.43962791 235.63035188
619 1 1 170.37566736 100.17190731 236.65771679
620 1 1 178.19387075 99.88890272 237.14258033
621 1 1 185.97871852 100.62037226 236.89103359
622 1 1 193.03003274 102.35474136 236.14071057
623 1 1 153.93211245 106.36553437 234.67894342
624 1 1 157.97401210 113.78836790 241.52914985
625 1 1 159.68224891 107.17019786 238.55637840
626 1 1 166.79068234 105.53755662 240.06466179
627 1 1 173.97770927 104.17288059 240.41890474
628 1 1 181.81859504 104.38679269 240.54960601
629 1 1 188.87889880 106.06666359 240.39682975
630 1 1 202.82450458 110.27465756 236.60379824
631 1 1 195.99750761 107.95744328 239.02357187
632 1 1 146.06781125 120.88125730 236.58696817
633 1 1 151.67783109 117.61074596 239.63115314
634 1 1 153.00529982 111.51760284 237.53857429
635 1 1 198.51066749 113.91847802 241.13684798
636 1 1 210.21082181 120.13323822 235.68261740
637 1 1 204.75246833 116.75964415 238.68951381