Generation of multi rbc models.

5808 atoms
0 bonds
0 angles
0 dihedrals
0 impropers

8 atom types
0 bond types
0 angle types
0 dihedral types
0 improper types

0.000 1600.000 xlo xhi
0.000 1000.000 ylo yhi
0.000 400.000 zlo zhi

Atoms

1 1 1 170.65753832 191.04413591 151.32994494
2 1 1 164.79577701 189.16777507 152.95009662
3 1 1 168.61457597 183.90630817 153.56357870
4 1 1 177.01608150 194.11773312 150.35448145
5 1 1 175.91866412 187.36782290 151.66275264
6 1 1 182.59594602 190.36823882 151.17679718
7 1 1 188.35337828 188.18519429 152.58512382
8 1 1 189.12844140 194.95447275 151.56813099
9 1 1 170.95344564 198.05613951 150.50578747
10 1 1 164.81991159 195.82540458 151.89014899
11 1 1 177.33776870 200.72675883 150.00536290
12 1 1 183.47826359 197.58196734 150.38438860
13 1 1 189.62413934 202.21466670 151.47106042
14 1 1 171.28410756 205.01070815 150.67358672
15 1 1 165.18931663 202.73877817 151.68580643
16 1 1 177.45847018 207.20910166 150.51838416
17 1 1 183.61443494 204.59366667 150.55074626
18 1 1 188.38855207 209.47192399 152.05896635
19 1 1 166.84327816 209.99972189 152.23983647
20 1 1 173.57759860 212.14063910 151.67104613
21 1 1 181.63591240 211.75756095 151.54784174
22 1 1 163.81186944 179.04855114 156.81390981
23 1 1 159.53792726 174.83742156 160.84687518
24 1 1 166.32603030 172.87771302 159.60212603
25 1 1 170.46154813 177.26531850 156.08420071
26 1 1 173.51854962 171.84616909 158.91534893
27 1 1 178.05768048 176.73412315 155.75507343
28 1 1 180.53372660 171.30643277 159.16113406
29 1 1 184.63249579 176.90347635 156.19829467
30 1 1 187.32782809 172.02668710 159.68773960
31 1 1 192.20479835 177.80205404 157.59473169
32 1 1 193.25814361 172.21738417 161.43443627
33 1 1 198.27720034 175.55387208 161.51414309
34 1 1 154.79810551 187.75521510 157.32167068
35 1 1 150.68285014 183.70294374 161.27681539
36 1 1 156.68620907 180.77938341 158.95350974
37 1 1 160.94063377 184.80869895 155.44599119
38 1 1 174.91699293 181.66000085 153.58134700
39 1 1 181.79640797 183.29795071 153.05080379
40 1 1 188.07585282 182.03131068 154.49864096
41 1 1 194.14496588 184.79274798 155.27519825
42 1 1 198.75060046 181.28403984 158.65822131
43 1 1 200.10306718 187.99656860 156.90558849
44 1 1 204.78752136 184.42263929 160.91957102
45 1 1 153.77318176 195.41510953 156.38151235
46 1 1 149.42374575 191.11343907 159.79236032
47 1 1 159.04675012 192.14609212 154.31470339
48 1 1 194.71681602 191.68401871 153.69978521
49 1 1 200.54280929 194.77646644 155.79102088
50 1 1 205.74394271 191.18456741 159.50331426
51 1 1 154.26684324 202.99199852 155.97191554
52 1 1 149.03955143 198.93225933 159.09847698
53 1 1 159.17996042 199.36657718 153.59140927
54 1 1 195.06488828 199.01814285 153.09211550
55 1 1 200.51140660 201.62214612 155.49323424
56 1 1 206.01449483 198.07904545 158.77939594
57 1 1 155.51422279 210.31866317 156.42925182
58 1 1 149.70335959 206.53547518 159.14109261
59 1 1 160.27277319 206.72505982 153.64539408
60 1 1 194.81092925 206.88963099 153.49254368
61 1 1 200.75752770 207.80570396 156.27806234
62 1 1 206.21570530 204.81462030 159.15179907
63 1 1 156.88007013 217.14029726 157.92407286
64 1 1 150.88762696 213.76739455 160.14938702
65 1 1 162.13370922 213.74326451 154.53425167
66 1 1 169.53611407 216.85229440 153.64264164
67 1 1 177.71923005 217.12713015 153.01451088
68 1 1 185.62947103 216.37249832 153.40316782
69 1 1 192.44301716 214.33057630 154.38794181
70 1 1 198.52319028 213.49347167 156.54397015
71 1 1 205.18737391 211.71779682 159.84764911
72 1 1 152.72524443 220.73921851 162.00932025
73 1 1 163.22953734 220.00074714 156.53305489
74 1 1 158.93409828 223.89466514 160.31145706
75 1 1 169.17841611 222.75283643 156.30129721
76 1 1 175.38100288 222.47285524 155.38551315
77 1 1 182.61895489 222.08397823 155.38949902
78 1 1 189.84398980 221.05150875 156.26842176
79 1 1 202.84079975 217.82242527 160.56274520
80 1 1 196.36193359 219.76407789 157.98596936
81 1 1 165.20709380 226.74920935 159.65344035
82 1 1 172.36911207 228.20921097 159.05522696
83 1 1 179.53323540 227.59389923 158.32289250
84 1 1 186.71597646 226.93539149 158.81659259
85 1 1 193.65694518 225.83207804 160.22557274
86 1 1 162.58364217 168.97487752 163.87367652
87 1 1 159.25783123 165.65138261 168.76659070
88 1 1 166.06255266 163.71813989 167.67886036
89 1 1 169.63380006 167.46821450 162.93457935
90 1 1 173.23646901 162.71609178 167.02207695
91 1 1 176.83151183 166.71022697 162.72568944
92 1 1 180.72912501 162.57204028 167.00430356
93 1 1 184.23185627 166.76072857 163.23039548
94 1 1 188.38103643 162.87882289 168.25243189
95 1 1 190.96353184 167.17844331 164.68098028
96 1 1 196.07353386 164.74155767 169.65954577
97 1 1 197.67144586 169.25392903 165.97651827
98 1 1 152.72182557 176.95540532 163.39356630
99 1 1 149.08080547 173.54635007 168.76898512
100 1 1 155.80119942 171.23037566 165.53335762
101 1 1 204.02992249 178.41505707 163.33840338
102 1 1 202.55103525 172.63054835 166.29451669
103 1 1 207.54384092 174.27360066 169.16034767
104 1 1 145.47626116 187.07334601 164.09923490
105 1 1 142.04359187 183.34576617 169.26165608
106 1 1 146.97166976 179.93125727 166.12920541
107 1 1 210.06894496 187.33355345 163.99366224
108 1 1 209.14959141 180.63889282 166.23265301
109 1 1 213.82973212 183.90050067 169.33226873
110 1 1 144.71844796 194.71319397 162.86704101
111 1 1 140.98993814 190.73636775 167.43706572
112 1 1 210.78103671 194.48716608 162.84673293
113 1 1 214.66565416 190.92879075 167.49157579
114 1 1 144.72652321 202.49845932 162.56363186
115 1 1 140.59690600 198.44767585 166.60753111
116 1 1 211.07526316 201.55733258 162.72839497
117 1 1 215.24421765 198.22322576 166.93535686
118 1 1 145.49690152 209.99113196 163.14079290
119 1 1 140.88192334 206.10569737 166.80847758
120 1 1 210.64229289 208.59271485 163.30189747
121 1 1 215.31323602 205.25953076 167.38203423
122 1 1 146.90782131 217.09419527 164.56466330
123 1 1 141.80805503 213.36379682 167.93436124
124 1 1 209.13971587 215.37168914 164.20718550
125 1 1 214.37926297 212.19549226 168.18112915
126 1 1 143.45963190 220.23277142 169.76995824
127 1 1 155.19771648 227.32618032 164.71853343
128 1 1 148.94582961 223.71336100 166.72011092
129 1 1 200.32680777 223.96199833 162.33381418
130 1 1 206.65490188 221.46655120 165.26427503
131 1 1 212.59928763 218.71394250 169.36669764
132 1 1 151.45911848 229.67588784 169.53492512
133 1 1 161.53120933 230.38498002 163.74616087
134 1 1 158.12306643 233.43224036 168.41457104
135 1 1 168.33084223 232.36828010 163.05797743
136 1 1 176.25869260 232.62002431 162.11416339
137 1 1 183.45164993 232.26893674 162.20790401
138 1 1 190.55083214 231.33883048 163.17031376
139 1 1 197.45670712 229.73707831 164.92738147
140 1 1 203.93696665 227.44445797 167.38025969
141 1 1 164.48507763 236.06804778 167.99666434
142 1 1 172.50902167 236.38638532 166.08629296
143 1 1 179.91021000 236.93903646 166.34165651
144 1 1 187.20656141 236.25588451 166.85598134
145 1 1 194.30896304 234.90681093 168.21778250
146 1 1 163.05376850 160.49791016 173.15078597
147 1 1 159.75797967 158.22204039 179.31572206
148 1 1 166.65660039 156.55309620 177.94132154
149 1 1 169.87583958 159.29248442 172.09803008
150 1 1 173.80724003 155.85940507 176.89720538
151 1 1 177.12317679 158.89716960 171.57111488
152 1 1 181.18464332 155.98937734 176.56091046
153 1 1 184.56706014 159.31009736 171.78017833
154 1 1 188.72555790 157.30374874 176.43725664
155 1 1 192.71701010 160.61601719 173.09400237
156 1 1 192.38416466 155.77776480 181.86164167
157 1 1 196.50127819 158.87924643 178.63084961
158 1 1 152.60502838 168.30943730 170.66603114
159 1 1 150.87725584 165.51804096 175.79993982
160 1 1 156.84097652 162.74829473 174.07436582
161 1 1 203.25445842 167.96000753 171.31214783
162 1 1 200.10635152 163.00208126 174.88145113
163 1 1 206.18062438 165.45304934 177.67794050
164 1 1 143.66931686 176.61600652 171.91777288
165 1 1 140.82869726 174.23982452 178.32412613
166 1 1 146.05223844 170.48608646 175.08161447
167 1 1 212.49566927 177.35999635 172.04983964
168 1 1 209.38711036 170.79865723 174.56572373
169 1 1 214.73235988 174.59042409 177.91648383
170 1 1 137.84032339 187.18071120 172.79760851
171 1 1 134.96346195 184.64552956 179.25569617
172 1 1 138.93116669 180.47319949 175.32983541
173 1 1 217.89744708 187.61909397 172.85664123
174 1 1 217.02584042 181.15217730 175.43057120
175 1 1 220.93586865 185.58364755 179.28581151
176 1 1 137.16463072 194.62888578 171.34001485
177 1 1 134.38608727 191.15559624 176.79623705
178 1 1 218.60419537 194.82888469 171.60176488
179 1 1 221.30154187 191.61420921 176.86568830
180 1 1 137.05724114 202.25240476 171.07232169
181 1 1 133.99775554 198.58642266 175.89286099
182 1 1 219.18966353 201.75888434 172.03041230
183 1 1 222.21705825 197.89927034 177.17718245
184 1 1 137.48143441 209.46660032 171.94671032
185 1 1 133.90365036 205.53645337 176.66357914
186 1 1 218.71614299 208.84028770 172.67640564
187 1 1 222.11954915 205.19389778 177.47598458
188 1 1 138.73846075 216.48311717 173.44849727
189 1 1 134.78388754 212.47382248 177.71884229
190 1 1 217.44419455 215.58358538 173.83267372
191 1 1 221.22480256 212.44258031 178.59003218
192 1 1 136.38328955 219.22699834 179.56297657
193 1 1 145.70252528 226.58058900 172.32475003
194 1 1 140.68500509 223.10693978 175.68404563
195 1 1 209.92013097 224.54831904 170.57771480
196 1 1 212.65818789 227.01474244 176.43946643
197 1 1 215.45000296 221.75390569 175.32485151
198 1 1 143.27152533 229.22635050 178.63386962
199 1 1 154.03558817 234.79917430 173.03649646
200 1 1 148.39786145 232.29555145 175.59979952
201 1 1 201.00884804 232.92211939 170.36472804
202 1 1 204.53018990 235.13639617 176.51287799
203 1 1 207.15747605 230.26340365 173.11795557
204 1 1 152.82332427 237.68766476 178.58180242
205 1 1 165.26038946 240.51593876 173.47079089
206 1 1 159.30390565 238.61087679 174.11915651
207 1 1 170.33206026 239.73102222 170.53778216
208 1 1 176.63491665 240.80521596 171.09123748
209 1 1 183.81047125 240.46517592 171.22022365
210 1 1 191.03788792 239.38082920 172.15415599
211 1 1 194.33527430 241.79315285 178.05990358
212 1 1 197.95607096 237.65862398 173.98706613
213 1 1 163.92182069 243.11495657 178.75749603
214 1 1 171.66499758 243.61436598 176.28058275
215 1 1 179.63728342 243.89154573 176.07697836
216 1 1 187.22962896 243.15247071 176.53179725
217 1 1 190.53199050 245.16119237 182.67597663
218 1 1 153.93690964 160.86093067 180.05498021
219 1 1 150.56511682 160.83015397 185.05928933
220 1 1 156.23025993 157.03504126 186.30424528
221 1 1 163.07122608 155.00559838 183.96833960
222 1 1 170.80090812 153.59912183 182.79423347
223 1 1 178.14133964 153.39411530 181.95732729
224 1 1 185.72360714 154.22601658 181.57565796
225 1 1 191.15848410 153.51001424 187.45188913
226 1 1 198.00395722 156.51837556 185.92008669
227 1 1 202.47115378 160.65337441 181.55256527
228 1 1 204.86779140 159.80162353 187.81798859
229 1 1 147.38725508 165.32188324 180.71028061
230 1 1 142.65791554 169.13227035 182.33113768
231 1 1 145.30205984 164.16517209 187.37623994
232 1 1 211.98959802 168.94971726 180.91845918
233 1 1 208.68843923 164.03526242 184.20506703
234 1 1 213.97445914 167.73641024 187.85651477
235 1 1 136.47739216 178.30606037 182.04200993
236 1 1 132.95002342 182.81642667 186.06322468
237 1 1 138.27539115 172.88603428 185.75347780
238 1 1 219.19102985 178.89107733 181.60042830
239 1 1 216.89495752 172.96722486 184.57418967
240 1 1 220.94279562 177.68396612 188.25722111
241 1 1 131.77418383 189.27497128 183.62934785
242 1 1 222.78112720 184.13728217 185.08286702
243 1 1 131.67854511 195.21795161 181.24771623
244 1 1 223.95199674 192.02453056 182.55933771
245 1 1 131.15185547 201.53855857 182.01068998
246 1 1 224.53633863 200.29990081 182.28553675
247 1 1 131.58968248 208.34151789 182.75553739
248 1 1 224.20451101 207.97360358 183.21880067
249 1 1 132.83255850 214.96084255 183.97753932
250 1 1 222.95504233 215.15984003 184.82879571
251 1 1 138.72130835 225.61255946 182.11823939
252 1 1 134.83262402 221.50870620 186.07049010
253 1 1 219.39816589 219.39961845 180.18648708
254 1 1 220.77584245 221.74932361 186.60545503
255 1 1 137.66295892 227.67704800 188.77368193
256 1 1 147.01336047 234.96415928 181.75944960
257 1 1 141.97199138 231.59407027 185.12632632
258 1 1 210.69591566 231.65845801 179.60674204
259 1 1 213.56258609 231.82097066 185.55623550
260 1 1 216.50503981 226.06712929 182.05038031
261 1 1 145.77883944 236.69675466 188.54848519
262 1 1 157.50523396 241.58748940 180.98608814
263 1 1 151.29634793 239.69541942 185.00311998
264 1 1 201.10691406 239.55716052 180.17377497
265 1 1 203.95567939 240.44111566 186.53269473
266 1 1 207.58095869 236.30554050 182.80601495
267 1 1 155.79926719 243.37532738 188.26915078
268 1 1 161.85552145 245.08289983 185.29567810
269 1 1 168.61501655 245.90197515 182.35547360
270 1 1 175.97533501 246.27786046 181.09396826
271 1 1 183.69888819 246.07454621 181.44136618
272 1 1 193.20421552 246.35230016 189.23592209
273 1 1 197.32121532 243.33280572 184.42507744
274 1 1 167.45490003 152.54245095 188.21451250
275 1 1 165.23048532 151.86447853 195.18785481
276 1 1 171.56586682 150.97318135 192.55744987
277 1 1 175.73825615 151.57594568 187.80929166
278 1 1 177.03612159 150.21138227 195.74252889
279 1 1 183.46771362 152.18266451 186.62637469
280 1 1 181.41012571 150.76141925 192.25379860
281 1 1 187.93310315 151.65454878 192.43092441
282 1 1 150.09922952 159.35634312 191.05971655
283 1 1 154.79707705 156.03737846 193.92059129
284 1 1 160.62592485 153.99397479 190.67391173
285 1 1 195.45265610 153.74211768 193.24464676
286 1 1 200.95231098 156.47803686 191.82856545
287 1 1 206.40157574 159.32899444 195.03091523
288 1 1 140.85062745 167.86405511 189.90106805
289 1 1 144.78176825 162.91262790 194.17991477
290 1 1 210.43375108 163.17738911 191.27992983
291 1 1 215.15315279 167.16009560 195.18530383
292 1 1 134.51532216 177.26047914 189.51030182
293 1 1 136.93541250 171.96176882 193.34734616
294 1 1 218.39414040 172.07733455 191.66582244
295 1 1 221.85742279 176.83479588 195.59350020
296 1 1 131.42101118 182.50856741 193.35962037
297 1 1 223.93223305 182.50145352 192.06763976
298 1 1 129.58376640 195.86226273 187.35588975
299 1 1 128.71686261 192.96215192 193.44295702
300 1 1 130.24544613 188.24243690 189.91447540
301 1 1 225.14170206 188.78883994 188.56992633
302 1 1 225.99928488 187.39531099 196.07547444
303 1 1 226.79233844 193.08581629 192.95351982
304 1 1 129.36995735 203.46959310 187.97192382
305 1 1 128.22858771 199.89327454 193.31387193
306 1 1 225.97833783 196.32815476 187.22193334
307 1 1 227.38050159 199.38311926 193.72444647
308 1 1 130.05806347 210.35271172 189.22886807
309 1 1 128.46204987 206.45254402 194.85426188
310 1 1 226.21250713 203.54984885 188.08851029
311 1 1 227.13918716 205.86004688 194.55768478
312 1 1 131.68872523 216.86323745 190.40201038
313 1 1 131.47863742 218.65570914 196.98082857
314 1 1 223.98473890 217.22372768 191.67427285
315 1 1 225.51399044 210.62953217 189.55898468
316 1 1 134.11222719 223.27787636 192.75647286
317 1 1 221.73995856 223.01096861 193.74302870
318 1 1 136.92714752 228.56417221 195.92777678
319 1 1 141.00470317 232.97789886 192.14442749
320 1 1 214.81126433 232.79512449 192.59831487
321 1 1 218.08519014 227.53983056 189.11800799
322 1 1 145.05705081 237.59028657 195.74947389
323 1 1 150.12399624 240.91844326 192.07002311
324 1 1 205.81211904 240.89689173 193.39199029
325 1 1 209.92634311 236.78414409 189.25912905
326 1 1 154.73491000 244.20007798 195.81876475
327 1 1 160.39108251 246.30638159 192.53944269
328 1 1 172.85377724 248.05510401 187.00578295
329 1 1 166.49832928 247.58132577 189.45846202
330 1 1 180.31244028 248.06205727 186.36060542
331 1 1 187.01577632 247.74316711 188.26668359
332 1 1 195.76291450 246.43328829 195.21873246
333 1 1 189.75965043 248.39723511 195.92767364
334 1 1 200.03745436 243.85098169 190.84170144
335 1 1 171.22351900 249.26203938 194.28030608
336 1 1 177.25229961 249.33818620 191.75837581
337 1 1 183.50147744 249.25747316 193.41126463
338 1 1 164.89678962 151.76884442 202.33029099
339 1 1 170.91632527 150.50194353 199.34614130
340 1 1 177.70600843 150.06128655 201.91858055
341 1 1 184.19503034 150.44919761 198.92868560
342 1 1 190.88962149 151.82133304 197.85406680
343 1 1 149.30075975 158.97256479 198.07490647
344 1 1 154.16175354 155.98631186 201.68454520
345 1 1 159.41521557 153.55309618 198.21897750
346 1 1 196.12867195 153.53262138 201.35241824
347 1 1 201.10340383 155.82335316 198.49008498
348 1 1 206.24262480 158.96673416 202.03211526
349 1 1 140.34754316 166.98449710 197.31465641
350 1 1 144.40757618 162.82160048 201.50119623
351 1 1 211.22511112 162.87974568 198.70063838
352 1 1 215.39293427 167.19404170 202.72227484
353 1 1 133.60798884 176.80673216 196.86683970
354 1 1 136.68023199 171.55966997 200.77307712
355 1 1 219.00721745 171.74737637 199.15679558
356 1 1 221.99118835 176.89071896 203.19016914
357 1 1 131.10172058 182.11518762 200.65930099
358 1 1 224.39579068 181.94663666 199.61710135
359 1 1 127.95311941 195.99080849 198.97054150
360 1 1 129.32457636 187.89038296 197.79059602
361 1 1 226.21652289 188.01346870 203.10099605
362 1 1 227.39165360 193.83755895 199.37260483
363 1 1 127.84704921 202.59609247 200.36190106
364 1 1 227.77794302 200.34159396 200.29833568
365 1 1 128.73288459 209.53756606 201.97979894
366 1 1 227.29917807 206.86897257 200.99387953
367 1 1 129.57450792 212.74655145 196.20072512
368 1 1 130.67260619 216.49037393 203.13061307
369 1 1 224.30698528 218.31871151 199.25922194
370 1 1 226.08819615 212.42175754 196.44709514
371 1 1 133.62713600 223.48762736 200.21718393
372 1 1 221.95261090 223.42741825 201.03401978
373 1 1 136.89330302 228.65775426 202.90654136
374 1 1 140.65671116 233.51235674 199.31802732
375 1 1 215.09077547 233.30951153 199.90797820
376 1 1 218.80657972 228.38150910 196.43625835
377 1 1 144.89483142 237.55130743 203.21417365
378 1 1 149.53748299 241.28180837 199.52184915
379 1 1 206.45487593 240.97929764 200.67397831
380 1 1 210.85601820 237.34932771 196.41660911
381 1 1 154.46163225 244.11999739 203.44406189
382 1 1 159.70029306 246.64155050 200.04748006
383 1 1 165.36355357 248.35967540 196.90553492
384 1 1 189.91314067 248.40830450 203.43414860
385 1 1 195.59201946 246.71810365 201.56238226
386 1 1 201.40224776 244.05324540 198.13792445
387 1 1 171.22039224 249.57433480 201.34271320
388 1 1 177.49041197 249.99037889 198.16948903
389 1 1 183.91859408 249.64623078 200.12237287
390 1 1 166.02619920 152.34154333 209.39029012
391 1 1 171.21824104 150.80206095 205.83931979
392 1 1 177.36516605 150.71308893 208.25872279
393 1 1 183.77898762 150.72847335 205.82315505
394 1 1 189.96958285 151.72696499 204.33091636
395 1 1 149.16207330 159.38455385 205.42437988
396 1 1 154.42284119 156.76492050 209.11338638
397 1 1 159.62227022 153.78997676 205.71609005
398 1 1 194.98997103 153.91416015 208.81085833
399 1 1 200.79276603 156.05084201 206.05902546
400 1 1 205.64015101 159.46578411 208.87551306
401 1 1 140.31708512 167.27734018 204.91675646
402 1 1 144.82600418 163.49257204 208.91404612
403 1 1 210.93342944 163.05422522 205.83318426
404 1 1 214.86944483 168.05303587 210.10748961
405 1 1 133.80971134 176.59277561 204.19482019
406 1 1 136.98470894 172.36993686 208.42514743
407 1 1 218.75565652 172.16225227 206.68290232
408 1 1 221.18952084 177.56564849 210.54382633
409 1 1 132.00916653 181.59456369 208.08633097
410 1 1 224.19497632 182.77136249 206.92431378
411 1 1 128.60380657 191.59856152 203.27748208
412 1 1 129.98309613 186.62869628 206.00281576
413 1 1 225.59901784 189.41923190 210.04125965
414 1 1 227.13333884 194.63059541 205.92649207
415 1 1 128.19444530 197.63346041 205.96529205
416 1 1 227.30576404 201.10627301 206.78204052
417 1 1 128.45011899 204.30958848 206.94455958
418 1 1 226.66976748 207.66013283 207.17335710
419 1 1 129.83132230 211.27117939 208.62879941
420 1 1 131.89570425 217.25217599 209.89221983
421 1 1 223.69684290 218.31456200 207.55506163
422 1 1 225.80670943 213.45826932 203.59819087
423 1 1 133.65874326 222.58940025 206.64551071
424 1 1 221.08410662 223.88128220 207.45522239
425 1 1 137.07130581 227.46011123 209.49224942
426 1 1 140.83285114 233.07041041 206.54952562
427 1 1 214.91725321 232.63941123 207.55419496
428 1 1 218.49115021 228.82405502 203.62920791
429 1 1 145.73107136 236.89105395 210.66438442
430 1 1 149.69459852 240.78832029 207.03810706
431 1 1 205.89494511 240.66273057 207.61991229
432 1 1 211.01535979 237.17869255 203.86825810
433 1 1 154.72713215 243.02487494 210.93313559
434 1 1 159.89727191 246.12049525 207.44140184
435 1 1 165.37931290 248.28661034 204.12373220
436 1 1 189.57910631 247.47264737 210.46120693
437 1 1 195.53819224 245.98423219 208.50486085
438 1 1 201.06051581 243.94938222 205.34876548
439 1 1 171.39816272 248.86809825 208.57738735
440 1 1 177.44145100 249.80244103 204.69544398
441 1 1 183.61772601 249.22784443 206.70436211
442 1 1 173.13397161 151.91144523 212.78778867
443 1 1 181.46696958 151.80062134 212.68227327
444 1 1 188.35696191 152.43657404 211.11280327
445 1 1 149.98043001 160.48514595 212.79912948
446 1 1 160.29722733 154.92102456 212.64985631
447 1 1 166.56889282 153.91063836 215.74170411
448 1 1 172.53137319 153.95515229 218.70924194
449 1 1 178.89071161 153.41716490 218.06892921
450 1 1 186.15588619 153.95462600 217.53204687
451 1 1 193.02975377 155.05336951 215.65257491
452 1 1 199.56843592 157.09070505 213.48752182
453 1 1 205.20134552 160.93394756 214.83095033
454 1 1 141.16949635 168.26800279 212.29621724
455 1 1 146.08205768 164.89594586 216.16208176
456 1 1 210.44367274 164.31560250 212.56661556
457 1 1 213.10579933 169.33843283 217.61804773
458 1 1 134.50544328 178.05160106 212.02123240
459 1 1 138.25079533 173.69316780 215.62362818
460 1 1 217.46765141 173.14282132 214.22026331
461 1 1 222.92471061 183.54515146 213.79621746
462 1 1 131.89836988 185.68444165 213.75635707
463 1 1 223.97076673 189.96974389 216.28672755
464 1 1 129.61571668 191.83081474 210.63382567
465 1 1 131.29920258 192.97860578 217.02592415
466 1 1 224.00978505 195.95228123 218.60545447
467 1 1 226.06535371 196.78239376 212.56827812
468 1 1 129.32685098 198.80403843 212.28054307
469 1 1 131.13874816 200.47221056 218.01072385
470 1 1 225.91827038 204.35173029 212.80363394
471 1 1 224.21501043 202.30551267 218.39903698
472 1 1 129.90081758 206.19299910 213.02076454
473 1 1 131.90464926 207.58138123 218.39401461
474 1 1 224.99140277 212.20237246 211.07877889
475 1 1 223.72233713 209.40112359 217.35861650
476 1 1 132.26702393 213.74647313 215.50074317
477 1 1 222.47723467 216.23289505 215.47223250
478 1 1 134.81120027 221.32816545 214.13634251
479 1 1 220.53958199 221.89484769 213.90173952
480 1 1 138.64465081 227.09405091 215.35132714
481 1 1 141.97309849 232.34856324 213.15383469
482 1 1 213.69378078 231.30808906 215.21482285
483 1 1 217.71272364 227.87354311 211.39169267
484 1 1 147.00487235 234.99735098 218.15969341
485 1 1 150.64747232 239.34576370 214.75315611
486 1 1 205.46746236 239.32087413 213.75370470
487 1 1 210.62322522 236.11064377 210.91245316
488 1 1 160.22565436 244.55216479 214.46101696
489 1 1 166.00899587 247.31688038 211.17439952
490 1 1 172.55594186 247.03551921 216.20633095
491 1 1 166.39700006 245.55335861 217.24903885
492 1 1 177.25006389 248.69571962 211.43761716
493 1 1 179.45979403 246.61097999 218.07887818
494 1 1 183.43411955 247.97810610 212.97936649
495 1 1 187.15981019 245.88159801 217.58151752
496 1 1 193.70774762 244.82367363 215.46951670
497 1 1 200.11524608 242.83150002 212.98697274
498 1 1 155.68258987 158.26030335 216.35352706
499 1 1 157.72328973 160.57998052 223.27702279
500 1 1 161.83960832 156.87447496 219.59461444
501 1 1 168.17370729 156.47792616 222.61358318
502 1 1 175.61936996 156.24686282 224.05828362
503 1 1 182.62838663 156.08289701 223.35756338
504 1 1 189.74112590 156.90135394 222.29958053
505 1 1 196.24842968 158.33528862 220.51516531
506 1 1 201.94986997 160.99648216 219.81355784
507 1 1 142.79274826 170.01625483 219.37470194
508 1 1 148.09617292 167.00864335 222.99548501
509 1 1 151.67616124 162.31873765 219.92082087
510 1 1 199.11719011 162.89871433 225.81341014
511 1 1 208.42740745 165.47732441 219.16175641
512 1 1 205.02260178 165.69999565 224.07493963
513 1 1 135.57796158 180.19934352 218.05380288
514 1 1 139.94953608 175.95072898 222.11979216
515 1 1 144.97460203 172.52003015 225.83162832
516 1 1 209.77780711 170.68481277 224.80414502
517 1 1 219.39150950 178.75351501 217.77546271
518 1 1 215.01493216 174.52277807 221.52099134
519 1 1 134.12971076 186.28287243 220.14457659
520 1 1 138.15804909 182.03052345 224.62291043
521 1 1 216.89307491 180.71460601 224.43805741
522 1 1 220.85069434 185.10068941 220.54574018
523 1 1 134.13741196 191.73811982 222.94865075
524 1 1 221.37088168 191.68652726 223.02694567
525 1 1 133.56327715 197.86462347 223.24208073
526 1 1 221.52979833 199.11292642 224.18777813
527 1 1 134.01423346 204.62756268 223.73495316
528 1 1 221.48030349 206.34978778 223.45633120
529 1 1 134.72001715 211.83377508 222.50244426
530 1 1 220.56730842 213.38518288 222.15100709
531 1 1 138.72622657 223.78817268 220.25033865
532 1 1 135.76711658 217.94586672 220.34024928
533 1 1 140.56806859 221.14702491 225.86656458
534 1 1 216.48230576 225.78733403 218.39430654
535 1 1 218.73313966 219.83644905 220.74274637
536 1 1 214.06653258 223.61075834 225.03798798
537 1 1 143.20772711 230.30046387 219.70044708
538 1 1 143.50329414 226.93590053 224.51235829
539 1 1 148.54507561 231.73530097 225.29239642
540 1 1 208.97134264 234.79495454 217.83442937
541 1 1 211.66244968 229.31998109 222.21910586
542 1 1 206.55663515 233.37783477 223.65152962
543 1 1 156.00781873 241.07500659 218.46095061
544 1 1 152.17290054 236.81394737 222.15362105
545 1 1 158.40985303 238.62764177 225.19035546
546 1 1 203.02451885 238.59370180 219.36697474
547 1 1 200.27466225 236.98178020 225.06164421
548 1 1 197.21993391 241.50441905 220.03633269
549 1 1 162.24471047 242.47105822 221.37552714
550 1 1 169.50152146 243.81421258 222.66909823
551 1 1 175.96887667 244.40338832 222.96058077
552 1 1 183.39966183 243.97634594 223.16473812
553 1 1 190.68261245 242.91921752 222.21519147
554 1 1 164.07067345 159.75269113 226.27139915
555 1 1 171.22300222 159.30397137 228.26278299
556 1 1 178.89422390 159.22133554 228.87550609
557 1 1 186.12784391 159.53066294 228.11573743
558 1 1 193.03262199 160.74504224 226.91491876
559 1 1 154.12667278 164.93573353 226.63180509
560 1 1 157.16365051 168.42476667 232.80790135
561 1 1 160.39448854 163.81291613 229.77260241
562 1 1 167.02261445 163.17687988 232.03847519
563 1 1 174.61736498 162.66025921 233.07319334
564 1 1 182.42164384 162.90053346 233.16906053
565 1 1 189.80941160 163.81533039 232.31265375
566 1 1 203.25444996 168.44628401 229.21962757
567 1 1 196.62311797 165.82930630 231.23368093
568 1 1 142.84183406 178.45523217 228.53152492
569 1 1 148.11512163 175.45878061 231.88205850
570 1 1 150.67769568 169.77897067 229.16546461
571 1 1 199.95454130 171.27336736 234.37395365
572 1 1 212.11287910 176.74743075 227.91679152
573 1 1 206.66483732 173.65973248 231.15244335
574 1 1 137.60744635 187.87894514 227.17749421
575 1 1 141.94992444 184.37117707 231.16295431
576 1 1 147.08293918 181.15209538 234.66208910
577 1 1 208.69313578 179.89392721 233.74968156
578 1 1 217.98479262 187.40556383 226.91197037
579 1 1 213.74124205 183.36423307 230.48169204
580 1 1 137.15678087 194.66535574 228.65303995
581 1 1 141.22438844 190.98417404 232.89235883
582 1 1 218.52983553 194.88772762 228.51275161
583 1 1 214.82067235 190.64833363 232.24872152
584 1 1 136.97269705 201.42820424 228.85750787
585 1 1 140.82892167 198.00993383 233.62300129
586 1 1 218.49469763 202.72915228 228.89480998
587 1 1 215.17103091 198.47759402 233.15748902
588 1 1 137.45262800 208.60182196 228.28597061
589 1 1 140.85344424 205.27422916 233.29890452
590 1 1 217.90409273 210.14098249 228.06471491
591 1 1 214.69567331 206.35336100 233.12220813
592 1 1 138.54336509 215.36107589 226.93031791
593 1 1 141.78341947 212.52151776 232.37313497
594 1 1 216.35428294 217.09740725 226.84137425
595 1 1 213.44277451 213.78447346 232.22941551
596 1 1 146.43811687 225.45856244 229.50845187
597 1 1 143.75170151 219.22141429 231.20103874
598 1 1 149.53937519 222.43183296 234.64559865
599 1 1 208.46804224 227.19806269 228.63139268
600 1 1 211.31151067 220.77126279 230.74280807
601 1 1 205.58360921 223.49933413 234.28986871
602 1 1 154.75235330 234.02635861 228.52283576
603 1 1 151.85238987 228.81482817 231.60411525
604 1 1 158.33101653 230.88933684 234.19112047
605 1 1 203.57874857 231.82095375 228.69380676
606 1 1 201.62679335 228.62406621 233.36622607
607 1 1 197.34759260 234.26086867 230.73926992
608 1 1 165.48283100 240.15753277 227.16742260
609 1 1 161.65664231 235.83824233 230.94113609
610 1 1 172.63776179 240.90940291 228.31827973
611 1 1 168.86513136 236.90194511 232.56549753
612 1 1 179.73680498 241.16525868 228.34689549
613 1 1 176.23909207 237.34053810 233.24252345
614 1 1 187.03911633 240.45834910 227.91608233
615 1 1 183.51279639 237.15362698 232.99220605
616 1 1 194.05188448 239.13846257 226.55670016
617 1 1 190.69461733 236.11306123 232.10529076
618 1 1 163.23249734 168.10629458 235.63035188
619 1 1 170.37566736 166.83857397 236.65771679
620 1 1 178.19387075 166.55556939 237.14258033
621 1 1 185.97871852 167.28703893 236.89103359
622 1 1 193.03003274 169.02140803 236.14071057
623 1 1 153.93211245 173.03220104 234.67894342
624 1 1 157.97401210 180.45503457 241.52914985
625 1 1 159.68224891 173.83686452 238.55637840
626 1 1 166.79068234 172.20422329 240.06466179
627 1 1 173.97770927 170.83954725 240.41890474
628 1 1 181.81859504 171.05345936 240.54960601
629 1 1 188.87889880 172.73333025 240.39682975
630 1 1 202.82450458 176.94132423 236.60379824
631 1 1 195.99750761 174.62410995 239.02357187
632 1 1 146.06781125 187.54792397 236.58696817
633 1 1 151.67783109 184.27741263 239.63115314
634 1 1 153.00529982 178.18426951 237.53857429
635 1 1 198.51066749 180.58514469 241.13684798