Generation of multi rbc models.

246 atoms

1 atom types
0.000 1000.000 xlo xhi
0.000 3000.000 ylo yhi
0.000 1000.000 zlo zhi

Atoms

1 1 497.27530101 487.63601149 451.71770544
2 1 488.80117209 479.29197473 455.97243705
3 1 499.15852405 475.99021390 456.23566909
4 1 508.87626604 482.70445666 454.02410637
5 1 487.84458914 498.66340996 451.60636959
6 1 476.02384028 493.29232161 456.72202227
7 1 485.02387891 488.52517606 453.78081452
8 1 499.95434082 498.10241242 450.12679182
9 1 519.39669348 489.70960206 455.17343047
10 1 509.28841455 494.24241838 451.30128880
11 1 517.71505331 501.95649546 453.38047318
12 1 477.99172866 505.11792919 455.48275375
13 1 497.02495689 507.52361799 450.75049082
14 1 487.33205892 511.45382729 453.09695730
15 1 509.20351656 508.12605403 451.62615383
16 1 522.05148430 512.15272950 456.90274237
17 1 499.86523021 517.20093687 453.14639824
18 1 511.44480866 519.23420322 455.38752264
19 1 486.89926365 470.91863094 461.57448129
20 1 476.74227594 469.69253512 467.81556681
21 1 487.20049552 462.68567389 469.35230549
22 1 498.16616891 466.64614822 462.87761703
23 1 498.35733557 459.00204411 471.50210653
24 1 509.64372523 471.70540017 460.00723678
25 1 509.20194530 462.71171883 468.06909699
26 1 519.56814542 468.52128320 466.53052604
27 1 468.25296722 488.02487055 463.35186905
28 1 460.08105827 486.78885957 473.01258146
29 1 467.94548171 477.64884052 468.87907177
30 1 477.17605532 480.12363328 460.27988300
31 1 519.69169371 478.68376415 459.37540889
32 1 528.90124335 476.19923016 466.95508424
33 1 528.99433350 487.55650472 461.30953565
34 1 536.52746304 484.69126812 469.58189227
35 1 468.07666235 501.09678112 461.61382159
36 1 461.38293945 496.69471668 468.48589163
37 1 527.13111879 499.45687610 458.10357793
38 1 542.13977573 493.22269981 474.06324460
39 1 536.11556104 497.22861901 465.63588205
40 1 546.74380818 496.77090977 482.66838138
41 1 469.77626850 511.93838319 462.08369485
42 1 460.28000274 508.13057457 470.81497108
43 1 478.92457405 517.91405698 458.43624989
44 1 532.76850920 508.19462464 463.23853859
45 1 542.18419169 505.41788392 473.82325505
46 1 537.79863817 514.87204402 470.95477077
47 1 464.95034987 518.33961571 469.50043259
48 1 489.52168612 522.52737497 456.70225484
49 1 473.36821852 524.67491471 465.70864421
50 1 501.01736913 526.96641494 458.00454417
51 1 509.68246549 530.75960042 461.89023444
52 1 520.02601764 523.95954566 461.05290428
53 1 529.36891751 519.71190504 464.76640482
54 1 482.52938568 529.88325394 464.01231783
55 1 492.40680811 532.64456220 462.99248859
56 1 488.88644143 539.78795677 471.93124050
57 1 517.87093471 533.76976954 467.85413179
58 1 500.83750718 537.39742866 466.92396275
59 1 526.98090712 530.17565775 470.76069658
60 1 499.87022179 544.27241266 476.87073593
61 1 498.92135933 453.60674084 481.44990970
62 1 488.16273833 456.13198532 479.19444722
63 1 492.92045997 451.43141752 490.49117827
64 1 509.25412058 456.00414905 478.19617141
65 1 468.46172984 468.57852668 477.29929858
66 1 462.30446731 469.40151678 488.07483259
67 1 470.94758300 461.29201442 487.47424409
68 1 477.76671041 461.39766639 477.35618865
69 1 519.19649564 460.57269389 476.06410838
70 1 526.88665749 460.30551158 485.89224990
71 1 528.40318643 467.26537099 475.15784488
72 1 535.33295972 467.88588685 485.25615089
73 1 460.58625374 477.51088815 479.06075491
74 1 543.07909957 483.49398625 480.82875826
75 1 536.96096049 475.36938495 477.13872881
76 1 547.13460244 486.86431512 489.84723595
77 1 455.28508420 498.79474679 477.72282741
78 1 451.25294724 500.98079900 488.95269028
79 1 454.22975551 489.00485539 483.19091016
80 1 549.42686767 500.35478973 492.62585606
81 1 454.34687979 509.86788539 482.21788240
82 1 459.29562749 519.38338903 478.45376680
83 1 542.48620715 517.93163664 480.80249227
84 1 546.80047231 509.09383903 485.06625455
85 1 467.86008417 528.84338991 474.88333212
86 1 462.26352404 529.00928199 484.76363509
87 1 535.25060374 525.52483572 475.50273449
88 1 544.63195346 520.92527976 491.80210177
89 1 471.11096309 537.08137624 483.04622597
90 1 477.72783800 535.49687753 472.81712389
91 1 481.45156432 542.83148528 482.17029801
92 1 509.99559216 540.28363025 472.22738361
93 1 520.37076823 539.82918557 477.78653709
94 1 529.75826523 535.61907374 481.53328661
95 1 538.18285083 529.21077349 486.40230127
96 1 491.05002482 546.09170344 482.91812555
97 1 500.36096464 548.78999335 489.20136900
98 1 510.44831987 545.82945215 483.07761944
99 1 521.09382346 543.82745618 488.56081085
100 1 481.25842763 455.11661621 488.44511387
101 1 475.06931849 456.67245963 498.43687514
102 1 486.75803215 451.77381804 499.61057916
103 1 500.45198078 449.99264734 499.78924616
104 1 506.17542858 451.41452033 489.98315372
105 1 517.17634512 454.75596697 487.50328803
106 1 513.83111971 451.95414552 499.11182009
107 1 458.25735172 472.45715552 499.29470600
108 1 465.61153992 463.71031514 498.62461131
109 1 524.80182673 456.65240133 497.61204349
110 1 534.35561601 463.92665404 495.81206273
111 1 542.06957144 474.75546941 490.48194181
112 1 545.80204574 479.96456865 500.41594324
113 1 455.60529181 479.64656610 489.30016455
114 1 451.02278024 491.57370805 494.45842484
115 1 453.16028991 482.45947609 499.93653302
116 1 549.21559319 491.26176226 499.35382137
117 1 450.05014062 501.86198361 501.79082266
118 1 549.76752040 501.61901562 504.50067199
119 1 455.19186971 519.60732491 489.66736228
120 1 451.47578874 511.21467979 495.53652645
121 1 548.53638659 511.62792163 497.31827150
122 1 454.76666725 521.15262489 502.80874407
123 1 459.18822911 528.54138220 495.57211017
124 1 544.66245786 522.16735589 503.62228784
125 1 476.45932659 543.41622994 492.29647928
126 1 466.67109874 536.78718881 494.07829448
127 1 530.79465490 538.65663887 492.61087479
128 1 538.91805334 531.28265204 497.78208150
129 1 479.99550644 545.77391467 502.18136971
130 1 488.29867915 548.21711251 493.95385704
131 1 498.92464676 549.97432395 500.87547470
132 1 510.75304302 548.55518190 495.02197525
133 1 521.08928299 545.32077072 500.01020039
134 1 480.34882372 454.83237761 508.76258734
135 1 487.25768452 454.76039015 517.18913205
136 1 493.93552014 451.13733424 508.85773105
137 1 508.05137428 451.43171250 508.87368400
138 1 520.35501321 455.27650326 509.36117253
139 1 461.41783157 469.74765086 509.98477822
140 1 469.74548060 461.25704875 509.32532304
141 1 475.82419121 460.53506148 519.05323163
142 1 530.60830128 461.18656006 507.62246449
143 1 535.97243496 468.31257672 514.29409227
144 1 539.88536827 469.97917894 502.84384585
145 1 455.37167886 479.89042075 510.36573551
146 1 459.68786254 478.44994026 520.39160451
147 1 543.34413942 478.05163773 511.88197056
148 1 547.85860554 489.18291478 509.66683602
149 1 451.24585094 491.45440948 507.27049427
150 1 454.63146145 489.68648721 518.44389646
151 1 547.64494187 500.18521193 515.22029863
152 1 452.32433883 512.51613905 508.54489308
153 1 547.59697209 511.93096616 509.62606076
154 1 458.51003542 524.00999284 514.33216682
155 1 461.69361049 531.62007624 505.86248213
156 1 542.54794014 521.25796079 515.46894218
157 1 470.17538488 539.93298397 504.09055689
158 1 467.45201450 534.89094763 515.04312206
159 1 477.65445582 542.77404739 513.16698172
160 1 530.46165083 539.44739968 503.91415661
161 1 537.92965358 531.20298084 509.38246778
162 1 488.89460245 548.18189996 507.48636285
163 1 498.60317111 548.13700399 513.51374535
164 1 509.58123444 548.61299099 506.72107550
165 1 519.68668030 544.55504722 511.32049845
166 1 501.43546686 453.10511772 517.40621000
167 1 513.81994077 455.90477303 519.20275384
168 1 466.61053491 468.56205840 520.05081193
169 1 473.80184229 468.63731828 528.92653468
170 1 483.63097032 461.26974744 527.17184032
171 1 494.46297853 456.93053254 524.90070597
172 1 505.53131194 458.72250981 527.77516132
173 1 525.09862563 461.45277363 519.69674369
174 1 531.50027440 469.78117560 524.47388819
175 1 460.51039411 488.69394924 528.62411389
176 1 466.07186597 478.03422701 529.55030633
177 1 538.95662498 478.11701959 522.52177704
178 1 544.38367467 488.48073194 520.00784247
179 1 451.94909049 501.34355984 513.89871102
180 1 456.47510341 500.20169258 524.72467801
181 1 543.09300777 499.21075469 525.41906108
182 1 455.37012217 511.77001912 519.34493205
183 1 461.37905030 510.06029811 530.22744125
184 1 544.12105780 510.60511728 521.06106574
185 1 461.19516824 520.10959007 524.39323125
186 1 535.18099596 528.97587681 520.62072158
187 1 537.45073495 519.49432161 526.85503308
188 1 528.65374051 525.94430469 531.79074241
189 1 467.45256297 529.33699651 524.18359547
190 1 476.89761720 537.78999110 523.29135286
191 1 528.73544582 538.15815167 514.82085064
192 1 526.28038484 534.37302279 525.12613542
193 1 517.86514602 540.99889036 522.42726884
194 1 487.55616711 544.47595960 519.24013372
195 1 497.69154344 543.19391980 525.15873971
196 1 508.45585149 545.65582757 518.61534475
197 1 483.53602369 468.88405130 535.61517360
198 1 494.38077945 471.73833307 540.96425493
199 1 494.47795213 463.32822257 533.64302659
200 1 505.47988359 466.31561362 536.64289560
201 1 516.18154126 462.73605658 529.24623140
202 1 523.93615929 469.58760809 531.75033894
203 1 469.00841884 488.16575528 537.51674683
204 1 474.57656184 478.07150822 537.15942897
205 1 484.26831353 478.11214971 542.21584719
206 1 514.43563264 471.95794323 538.89358720
207 1 523.09909285 479.65674437 539.49435150
208 1 538.27644560 488.02919855 529.94220820
209 1 531.79886014 479.49029149 532.77094994
210 1 463.58748371 499.09015079 534.36125494
211 1 479.79652848 488.27110267 544.30866313
212 1 536.35387852 498.19086574 534.36183787
213 1 529.63653147 490.93691885 539.32327747
214 1 469.64048629 510.17997065 538.50274339
215 1 472.38447652 498.92401267 541.77044853
216 1 479.37383736 510.32351005 544.45949902
217 1 537.87769855 509.15327514 531.40553885
218 1 529.54581831 504.55595527 540.16214816
219 1 468.76431204 520.72199408 533.19003659
220 1 478.11396128 520.89487160 539.90051945
221 1 517.79037770 533.42696394 532.72989134
222 1 529.70960277 515.97811957 536.98575288
223 1 519.57981172 523.94370830 539.36726987
224 1 476.91190406 530.38174985 532.40366274
225 1 487.43253205 529.25601951 538.64141978
226 1 487.03566444 538.02326380 529.85621198
227 1 497.62544059 535.45195976 535.26385580
228 1 507.90652639 539.45985981 529.75031391
229 1 508.31221300 530.49029691 538.82988700
230 1 503.48905327 476.53404189 544.11109276
231 1 492.56114143 483.01922303 546.53529471
232 1 502.30597817 488.53121721 548.70756126
233 1 512.39181667 482.71417640 545.34484471
234 1 520.44240656 490.04008993 544.62021108
235 1 482.03469317 499.41568209 546.75621477
236 1 491.15910446 493.95237135 548.93623291
237 1 500.57279418 501.34173093 550.07193155
238 1 510.92449948 495.65976406 548.69033656
239 1 521.14932277 501.01622033 545.38304578
240 1 490.56788443 507.18061224 548.66923712
241 1 500.10967253 514.08412148 548.06614887
242 1 510.72188536 507.89780743 548.28336234
243 1 520.37999247 513.03113366 543.84416543
244 1 488.80544813 518.66647338 545.10683707
245 1 498.42558099 525.49031729 543.07431709
246 1 509.78130385 519.96376829 544.87270989
